 TITLE = Shock normals
 VARIABLES = X Y Z(1) Z(2) NX NY
 ZONE T="sampletext",F=FEPOINT,ET=TRIANGLE, N=          19 , E=          18
  0.69611560190640076        3.9539283339184730E-002   1.0000000000000000        1.0000000000000000      -0.99426144205167455       0.10697749692961044     
  0.69778861149968685        5.6148682398643381E-002   1.0000000000000000        1.0000000000000000      -0.99497123653642450       0.10016106262005296     
  0.69946445211983843        7.2805856006330938E-002   1.0000000000000000        1.0000000000000000      -0.99547837442674914        9.4988452185921904E-002
  0.70096880551682061        8.9476818166657021E-002   1.0000000000000000        1.0000000000000000      -0.99600867557303929        8.9256474181093989E-002
  0.70245296700955207       0.10615461848002498        1.0000000000000000        1.0000000000000000      -0.99625855073452840        8.6422798429218281E-002
  0.70386278196916152       0.12283773463699205        1.0000000000000000        1.0000000000000000      -0.99684586797638886        7.9361927259864726E-002
  0.70511050036252521       0.13953545624510372        1.0000000000000000        1.0000000000000000      -0.99709992790229107        7.6103441296998656E-002
  0.70641143651921523       0.15622992627275692        1.0000000000000000        1.0000000000000000      -0.99733185500874921        7.3001171119424224E-002
  0.70755526098452626       0.17293536826347974        1.0000000000000000        1.0000000000000000      -0.99773534946090381        6.7261968720280632E-002
  0.70866410826961268       0.18964516010082993        1.0000000000000000        1.0000000000000000      -0.99753523136529343        7.0167386904391241E-002
  0.70990529990563289       0.20634480972396804        1.0000000000000000        1.0000000000000000      -0.99756998006737352        6.9671621686164184E-002
  0.71099747584960260       0.22305468587273597        1.0000000000000000        1.0000000000000000      -0.99760419688510515        6.9179956325689823E-002
  0.71222225354385127       0.23975616830967220        1.0000000000000000        1.0000000000000000      -0.99765387339388467        6.8459834225469959E-002
  0.71329037432893827       0.25646876737119734        1.0000000000000000        1.0000000000000000      -0.99746697931399031        7.1131042296760427E-002
  0.71460445610875711       0.27316204210406125        1.0000000000000000        1.0000000000000000      -0.99829465264998851        5.8376249369404699E-002
  0.71524609403644190       0.28995598439162856        1.0000000000000000        1.0000000000000000      -0.99094683849560994       0.13425484451428787     
  0.71916005573445507       0.30650274259304200        1.0000000000000000        1.0000000000000000      -0.99218674194956824      -0.12476164915349812     
  0.71225152180308759       0.32063609872813242        1.0000000000000000        1.0000000000000000      -0.90085258722938422      -0.43412511570067519     
  0.70498176606294094       0.33572156149032895        1.0000000000000000        1.0000000000000000      -0.90085258722938422      -0.43412511570067519     
           1           2           1
           2           3           2
           3           4           3
           4           5           4
           5           6           5
           6           7           6
           7           8           7
           8           9           8
           9          10           9
          10          11          10
          11          12          11
          12          13          12
          13          14          13
          14          15          14
          15          16          15
          16          17          16
          17          18          17
          18          19          18
