TITLE      =  Unstructured grid data 
VARIABLES  =  x  y  rho  u  v p H  Ma  s T time  sensor
ZONE    N  =  622    E  =  1139    F = FEPOINT    ET = TRIANGLE 

0.10000000000000000555 0.00000000000000000000 1.00000000000000000000 0.99999999999999988898 -0.00000000000000013119 0.08493285714285729593 0.79726500000000044555 2.90000078300031427503 0.08493285714285729593 1.04042750000000228106 145.41661506848032558992 0.00000000000000000000
0.10000000000000000555 1.00000000000000000000 1.21703669478838394369 0.96912809022703849671 -0.03856917941813278738 0.11369127274983728548 0.79730606591370711822 2.68194023832940642293 0.08635788280693638963 1.14435176617880873806 145.41661506848032558992 0.00000000000000000000
-0.20000000000000001110 1.00000000000000000000 1.00000000000000000000 1.00000000000000000000 0.00000000000000000000 0.08493285714285721266 0.79726500000000033452 2.90000078300031605139 0.08493285714285721266 1.04042750000000117083 145.41661506848032558992 0.00000000000000000000
-0.20000000000000001110 0.00000000000000000000 1.00000000000000000000 1.00000000000000000000 0.00000000000000000000 0.08493285714285721266 0.79726500000000033452 2.90000078300031605139 0.08493285714285721266 1.04042750000000117083 145.41661506848032558992 0.00000000000000000000
3.27000000000000001776 0.00000000000000000000 2.69158584559369762346 0.82933243845004145367 -0.00033109703400450465 0.34948442700722931464 0.79834780171548924699 1.94515795283030290541 0.08738085669691045276 1.59058060059542194509 145.41661506848032558992 0.00000000000000000000
3.27000000000000001776 0.38725900000000001988 4.00248169489689242795 0.70346570131880159504 -0.13610106881958644598 0.61563888223015783563 0.79504376376190522002 1.54404616617569012682 0.08832119670114609022 1.88422505890154057262 145.41661506848032558992 0.00000000000000000000
0.10000000000000000555 0.07692300000000000526 0.99999999999999933387 1.00000000000000044409 -0.00000000000000020341 0.08493285714285711552 0.79726500000000055657 2.90000078300031827183 0.08493285714285718491 1.04042750000000050470 145.41661506848032558992 0.00000000000000000000
0.10000000000000000555 0.15384600000000001052 1.00000000000000000000 1.00000000000000000000 0.00000000000000007991 0.08493285714285729593 0.79726500000000055657 2.90000078300031427503 0.08493285714285729593 1.04042750000000228106 145.41661506848032558992 0.00000000000000000000
0.10000000000000000555 0.23076900000000000190 1.00000000000000000000 0.99999999999999955591 -0.00000000000000000168 0.08493285714285725430 0.79726500000000000146 2.90000078300031427503 0.08493285714285725430 1.04042750000000161492 145.41661506848032558992 0.00000000000000000000
0.10000000000000000555 0.30769200000000002104 1.00000000000000000000 0.99999999999999977796 0.00000000000000016108 0.08493285714285739307 0.79726500000000077861 2.90000078300031249867 0.08493285714285739307 1.04042750000000316923 145.41661506848032558992 0.00000000000000000000
0.10000000000000000555 0.38461499999999998467 1.00000000000000066613 0.99999999999999977796 -0.00000000000000007764 0.08493285714285722654 0.79726499999999989043 2.90000078300031605139 0.08493285714285715715 1.04042750000000050470 145.41661506848032558992 0.00000000000000000000
0.10000000000000000555 0.46153800000000000381 0.99999999999999955591 1.00000000000000022204 0.00000000000000033468 0.08493285714285712940 0.79726500000000033452 2.90000078300031738365 0.08493285714285718491 1.04042750000000050470 145.41661506848032558992 0.00000000000000000000
0.10000000000000000555 0.53846199999999999619 0.99999999999999766853 1.00000000000000133227 0.00000000000000008680 0.08493285714285669918 0.79726500000000055657 2.90000078300032537726 0.08493285714285697674 1.04042749999999739607 145.41661506848032558992 0.00000000000000000000
0.10000000000000000555 0.61538499999999995982 1.00000000217774798195 0.99999999973010500476 -0.00000000063021279384 0.08493285740180421539 0.79726499998905153710 2.90000078095453117655 0.08493285714285690735 1.04042750090631308524 145.41661506848032558992 0.00000000000000000000
0.10000000000000000555 0.69230800000000003447 1.00000001768627178045 0.99999999903149072722 -0.00000000792048014903 0.08493285924586059521 0.79726500113449327856 2.90000076993360611510 0.08493285714285675470 1.04042750736050915172 145.41661506848032558992 0.00000000000000000000
0.10000000000000000555 0.76923099999999999810 0.99999830816699353253 1.00000052693700047790 0.00000012902416195096 0.08493265597136961942 0.79726532575933961589 2.90000329242497700832 0.08493285714039701395 1.04042679587767228355 145.41661506848032558992 0.00000000000000000000
0.10000000000000000555 0.84615399999999996172 1.00010377265745820097 0.99998951658977119905 -0.00003736537508906624 0.08494519461210099653 0.79726684922642965248 2.89991023311828488573 0.08493285516469184504 1.04047066159267664887 145.41661506848032558992 0.00000000000000000000
0.10000000000000000555 0.92307700000000003637 0.99498451006411969821 1.00063674977839078828 0.00123229052646077171 0.08433189221161278837 0.79728717692107853310 2.90485860460761058377 0.08492762856065244614 1.03827312801651872043 145.41661506848032558992 0.00000000000000000000
3.18871800000000016340 0.00000000000000000000 2.68638422603103377284 0.82977976655528673522 -0.00003435343857226333 0.34853186320998752468 0.79835771799577004426 1.94698068724367279181 0.08737900757245628536 1.58931670419696158270 145.41661506848032558992 0.00000000000000000000
3.10743599999999986494 0.00000000000000000000 2.68374234648953802207 0.83000282147176063230 -0.00001639792548387016 0.34804747208641895195 0.79835811793579447571 1.94790027327123804746 0.08737784656526632887 1.58867021591532386893 145.41661506848032558992 0.00000000000000000000
3.02615400000000001057 0.00000000000000000000 2.68303040987044250087 0.83006706766090143645 0.00000423394924959149 0.34791815940381815020 0.79836319959978996330 1.94815458531386043184 0.08737783182719839614 1.58850135914135082160 145.41661506848032558992 0.00000000000000000000
2.94487200000000015621 0.00000000000000000000 2.68384159158393087452 0.83003951176681145530 0.00002043158958931794 0.34802549503679081067 0.79834312657726236306 1.94808390421364485690 0.08736780594028728530 1.58851115787522956246 145.41661506848032558992 0.00000000000000000000
2.86358999999999985775 0.00000000000000000000 2.68490806617047583771 0.82997272389306298024 0.00002472789454536035 0.34821022415551805551 0.79834822379108660861 1.94779727010068848259 0.08736557332351804761 1.58872301798740922507 145.41661506848032558992 0.00000000000000000000
2.78230800000000000338 0.00000000000000000000 2.68669614954109858829 0.82983282378172751326 0.00009593163648436490 0.34853469411118737087 0.79835271750352720943 1.94721032178173447669 0.08736551501383570117 1.58914509316258456550 145.41661506848032558992 0.00000000000000000000
2.70102600000000014902 0.00000000000000000000 2.68928231184761434847 0.82962078293860264111 0.00002076490314090483 0.34900463043070367730 0.79835175030563898524 1.94633776134289804283 0.08736555405375494299 1.58975749921876463588 145.41661506848032558992 0.00000000000000000000
2.61974399999999985056 0.00000000000000000000 2.69073331508230761955 0.82957710740949364148 0.00000203907506945848 0.34913234618474292548 0.79823670406683466805 1.94640416684225159294 0.08733155006025353218 1.58948165423531584395 145.41661506848032558992 0.00000000000000000000
2.53846199999999999619 0.00000000000000000000 2.69091885798784424821 0.82956425625307406158 -0.00001584923092254777 0.34916604615212654128 0.79823856234437062795 1.94634718798324590772 0.08733154873401591245 1.58952547107344743793 145.41661506848032558992 0.00000000000000000000
2.45717900000000000205 0.00000000000000000000 2.68938890121754781148 0.82970017281104369022 -0.00002763311498637650 0.34887449805486542287 0.79823025932233160340 1.94692559590566549588 0.08732813253116304686 1.58910174695719752513 145.41661506848032558992 0.00000000000000000000
2.37589700000000014768 0.00000000000000000000 2.68718294812295965812 0.82987582131927817297 0.00018193626238444046 0.34846137080238304140 0.79821065684734393564 1.94769254153023441134 0.08732498340801453374 1.58852295312119151660 145.41661506848032558992 0.00000000000000000000
2.29461499999999984922 0.00000000000000000000 2.67781696174030825475 0.83114588365483510479 -0.00029052342235626194 0.34638216097732438259 0.79813532621562321978 1.95310662166022441788 0.08722927722288852104 1.58456740419426922450 145.41661506848032558992 0.00000000000000000000
2.21333299999999999486 0.00000000000000000000 2.65744640474470106284 0.83341650172714654143 -0.00058156661347264014 0.34227799217356036365 0.79809024676023421208 1.96264138608004823361 0.08712216426153149285 1.57779490741184869051 145.41661506848032558992 0.00000000000000000000
2.13205100000000014049 0.00000000000000000000 2.63395887130305528245 0.83777247630120321720 -0.00111096037147782466 0.33802581184287622262 0.80010009323126785041 1.97647813641041314447 0.08711587028039380343 1.57208840281804262951 145.41661506848032558992 0.00000000000000000000
2.05076899999999984203 0.00000000000000000000 2.53630522710094563621 0.84577156772238970550 -0.00165034743843193239 0.32063446530263106649 0.80012890113598578168 2.01041421842702883183 0.08712204877679448345 1.54861968425100160474 145.41661506848032558992 0.00000000000000000000
1.96948699999999998766 0.00000000000000000000 2.37518069930145436786 0.85846705538022727300 0.00174900916050136799 0.29232556428518491343 0.79924716640296300518 2.06811862702169824146 0.08707459816679871678 1.50766978004944740555 145.41661506848032558992 0.00000000000000000000
1.88820499999999991125 0.00000000000000000000 1.87370307466295638044 0.89954908796507915270 -0.02916009852925972520 0.21133502150978353273 0.79978453311063502085 2.26492362097265020893 0.08773853835197488460 1.38167783812839961577 145.41661506848032558992 0.00000000000000000000
1.80692300000000005689 0.00000000000000000000 1.37057029025469545580 0.95440230573421247495 -0.03273606223651654573 0.13498275044912128040 0.80068065864643833685 2.57178290108297824546 0.08681933088749467509 1.20646033607984914937 145.41661506848032558992 0.00000000000000000000
1.72564099999999998047 0.00000000000000000000 1.07598539942474880071 0.99014591939482432537 -0.00327616227710344609 0.09428060923316418374 0.79687884304850387096 2.82702442309805812570 0.08509292466721002368 1.07337651953615975664 145.41661506848032558992 0.00000000000000000000
1.64435899999999990406 0.00000000000000000000 1.01601200801075042257 0.99810041885292766217 -0.00144879715274702134 0.08684686521937592940 0.79727692983477704836 2.88524717477193393123 0.08493677554900413984 1.04710780044845552794 145.41661506848032558992 0.00000000000000000000
1.56307700000000004970 0.00000000000000000000 1.00431293341515148754 0.99947438123838805435 -0.00046356250959341070 0.08544674980188717017 0.79725394873979005261 2.89597260589126292984 0.08493347045223977043 1.04222762671566204773 145.41661506848032558992 0.00000000000000000000
1.48179499999999997328 0.00000000000000000000 1.00060438984290489550 0.99992704662003584204 -0.00000129593919945316 0.08500473859583826397 0.79726392697860648529 2.89943870197290953783 0.08493286432518444562 1.04067907193821596046 145.41661506848032558992 0.00000000000000000000
1.40051299999999989687 0.00000000000000000000 1.00012572308619418493 0.99998469068810424965 -0.00001282426138509039 0.08494780691634470915 0.79726464014204512232 2.89988347055602035951 0.08493285731114488812 1.04047982239082936751 145.41661506848032558992 0.00000000000000000000
1.31923100000000004250 0.00000000000000000000 1.00004653182249780841 0.99999433356666111994 -0.00000452031349836054 0.08493839015478348020 0.79726486659499873344 2.89995736199916498421 0.08493285719040363779 1.04044686550723364249 145.41661506848032558992 0.00000000000000000000
1.23794899999999996609 0.00000000000000000000 1.00001131929151387823 0.99999862845069431572 -0.00000085675669963726 0.08493420308303892274 0.79726497439821120139 2.89999024027688312444 0.08493285714831508293 1.04043221081173253850 145.41661506848032558992 0.00000000000000000000
1.15666699999999988968 0.00000000000000000000 1.00000171944674298707 0.99999979436993091664 -0.00000001441557417923 0.08493306159563525359 0.79726499882298806909 2.89999918939184997413 0.08493285714303051848 1.04042821558562526008 145.41661506848032558992 0.00000000000000000000
1.07538500000000003531 0.00000000000000000000 1.00000054579444430658 0.99999993475353166072 -0.00000007432302320543 0.08493292204111108079 0.79726499965180441798 2.90000027722456099610 0.08493285714286979982 1.04042772714393794153 145.41661506848032558992 0.00000000000000000000
0.99410299999999995890 0.00000000000000000000 1.00000006506223870772 0.99999999217974300247 0.00000000144026062942 0.08493286487914704364 0.79726499991603083650 2.90000072258547181292 0.08493285714285637999 1.04042752707700758563 145.41661506848032558992 0.00000000000000000000
0.91282099999999999351 0.00000000000000000000 0.99999999592839139417 1.00000000047966608463 0.00000000056241939733 0.08493285665871726231 0.79726499999552324915 2.90000078675290318131 0.08493285714285594978 1.04042749830550040890 145.41661506848032558992 0.00000000000000000000
0.83153799999999999937 0.00000000000000000000 0.99999999983906917578 1.00000000001908428970 -0.00000000001534284923 0.08493285712372074248 0.79726499999994604462 2.90000078314901488241 0.08493285714285637999 1.04042749993301630873 145.41661506848032558992 0.00000000000000000000
0.75025600000000003398 0.00000000000000000000 1.00000000000770361552 0.99999999999909583437 0.00000000000045539532 0.08493285714377235562 0.79726500000000910529 2.90000078299324037800 0.08493285714285633836 1.04042750000319661474 145.41661506848032558992 0.00000000000000000000
0.66897399999999995757 0.00000000000000000000 0.99999999999979072296 1.00000000000002797762 -0.00000000000002329675 0.08493285714283158039 0.79726500000000077861 2.90000078300053143465 0.08493285714285646326 1.04042749999990502552 145.41661506848032558992 0.00000000000000000000
0.58769199999999999218 0.00000000000000000000 1.00000000000000710543 1.00000000000000088818 0.00000000000000249444 0.08493285714285764287 0.79726500000000055657 2.90000078300032182455 0.08493285714285679633 1.04042749999999895039 145.41661506848032558992 0.00000000000000000000
0.50641000000000002679 0.00000000000000000000 0.99999999999999500400 1.00000000000000266454 -0.00000000000000027150 0.08493285714285611632 0.79726500000000055657 2.90000078300033514722 0.08493285714285671306 1.04042749999999295518 145.41661506848032558992 0.00000000000000000000
0.42512800000000000589 0.00000000000000000000 0.99999999999999833467 1.00000000000000133227 -0.00000000000000017038 0.08493285714285689347 0.79726500000000100066 2.90000078300032315681 0.08493285714285708776 1.04042749999999895039 145.41661506848032558992 0.00000000000000000000
0.34384599999999998499 0.00000000000000000000 0.99999999999999777955 1.00000000000000177636 -0.00000000000000061356 0.08493285714285667143 0.79726500000000077861 2.90000078300032715362 0.08493285714285693511 1.04042749999999672994 145.41661506848032558992 0.00000000000000000000
0.26256400000000001960 0.00000000000000000000 1.00000000000000022204 1.00000000000000066613 -0.00000000000000057848 0.08493285714285697674 0.79726500000000011248 2.90000078300032226863 0.08493285714285696286 1.04042749999999784016 145.41661506848032558992 0.00000000000000000000
0.18128199999999999870 0.00000000000000000000 0.99999999999999966693 1.00000000000000044409 -0.00000000000000011556 0.08493285714285710164 0.79726500000000033452 2.90000078300031871592 0.08493285714285714327 1.04042750000000006061 145.41661506848032558992 0.00000000000000000000
-0.10000000000000000555 0.00000000000000000000 1.00000000000000000000 1.00000000000000000000 0.00000000000000001827 0.08493285714285721266 0.79726500000000033452 2.90000078300031605139 0.08493285714285721266 1.04042750000000117083 145.41661506848032558992 0.00000000000000000000
0.00000000000000000000 0.00000000000000000000 1.00000000000000000000 1.00000000000000000000 -0.00000000000000000451 0.08493285714285721266 0.79726500000000033452 2.90000078300031605139 0.08493285714285721266 1.04042750000000117083 145.41661506848032558992 0.00000000000000000000
-0.20000000000000001110 0.92307700000000003637 1.00000000000000000000 1.00000000000000000000 0.00000000000000000000 0.08493285714285721266 0.79726500000000033452 2.90000078300031605139 0.08493285714285721266 1.04042750000000117083 145.41661506848032558992 0.00000000000000000000
-0.20000000000000001110 0.84615399999999996172 1.00000000000000000000 1.00000000000000000000 0.00000000000000000000 0.08493285714285721266 0.79726500000000033452 2.90000078300031605139 0.08493285714285721266 1.04042750000000117083 145.41661506848032558992 0.00000000000000000000
-0.20000000000000001110 0.76923099999999999810 1.00000000000000000000 1.00000000000000000000 0.00000000000000000000 0.08493285714285721266 0.79726500000000033452 2.90000078300031605139 0.08493285714285721266 1.04042750000000117083 145.41661506848032558992 0.00000000000000000000
-0.20000000000000001110 0.69230800000000003447 1.00000000000000000000 1.00000000000000000000 0.00000000000000000000 0.08493285714285721266 0.79726500000000033452 2.90000078300031605139 0.08493285714285721266 1.04042750000000117083 145.41661506848032558992 0.00000000000000000000
-0.20000000000000001110 0.61538499999999995982 1.00000000000000000000 1.00000000000000000000 0.00000000000000000000 0.08493285714285721266 0.79726500000000033452 2.90000078300031605139 0.08493285714285721266 1.04042750000000117083 145.41661506848032558992 0.00000000000000000000
-0.20000000000000001110 0.53846199999999999619 1.00000000000000000000 1.00000000000000000000 0.00000000000000000000 0.08493285714285721266 0.79726500000000033452 2.90000078300031605139 0.08493285714285721266 1.04042750000000117083 145.41661506848032558992 0.00000000000000000000
-0.20000000000000001110 0.46153800000000000381 1.00000000000000000000 1.00000000000000000000 0.00000000000000000000 0.08493285714285721266 0.79726500000000033452 2.90000078300031605139 0.08493285714285721266 1.04042750000000117083 145.41661506848032558992 0.00000000000000000000
-0.20000000000000001110 0.38461499999999998467 1.00000000000000000000 1.00000000000000000000 0.00000000000000000000 0.08493285714285721266 0.79726500000000033452 2.90000078300031605139 0.08493285714285721266 1.04042750000000117083 145.41661506848032558992 0.00000000000000000000
-0.20000000000000001110 0.30769200000000002104 1.00000000000000000000 1.00000000000000000000 0.00000000000000000000 0.08493285714285721266 0.79726500000000033452 2.90000078300031605139 0.08493285714285721266 1.04042750000000117083 145.41661506848032558992 0.00000000000000000000
-0.20000000000000001110 0.23076900000000000190 1.00000000000000000000 1.00000000000000000000 0.00000000000000000000 0.08493285714285721266 0.79726500000000033452 2.90000078300031605139 0.08493285714285721266 1.04042750000000117083 145.41661506848032558992 0.00000000000000000000
-0.20000000000000001110 0.15384600000000001052 1.00000000000000000000 1.00000000000000000000 0.00000000000000000000 0.08493285714285721266 0.79726500000000033452 2.90000078300031605139 0.08493285714285721266 1.04042750000000117083 145.41661506848032558992 0.00000000000000000000
-0.20000000000000001110 0.07692300000000000526 1.00000000000000000000 1.00000000000000000000 0.00000000000000000000 0.08493285714285721266 0.79726500000000033452 2.90000078300031605139 0.08493285714285721266 1.04042750000000117083 145.41661506848032558992 0.00000000000000000000
0.18128199999999999870 0.98428899999999996950 1.65333376437560519712 0.91903110127649578764 -0.11988629933674406491 0.17343266462744083567 0.79664111103426415994 2.41849436744816914668 0.08578792188681765019 1.28500983132616553029 145.41661506848032558992 0.00000000000000000000
0.26256400000000001960 0.96857700000000002127 1.87769455396058426722 0.89250498425657809332 -0.18064576945994662016 0.20431781574305935001 0.79544496455528379553 2.33305227921582680750 0.08457291733744549955 1.33296080428692431674 145.41661506848032558992 0.00000000000000000000
0.34384599999999998499 0.95286599999999999078 1.74966251006996276196 0.90066313928569696756 -0.18373880300086295470 0.18749424556120256047 0.79753784122083670738 2.37320741523399991735 0.08567457177261970924 1.31271287742965436784 145.41661506848032558992 0.00000000000000000000
0.42512800000000000589 0.93715499999999996028 1.71279649583909598931 0.90441308844403700551 -0.18207955663252325951 0.18205729789620200831 0.79758149709958792162 2.39154851840921001127 0.08570773547151575023 1.30208224073689660116 145.41661506848032558992 0.00000000000000000000
0.50641000000000002679 0.92144300000000001205 1.69677694144217916516 0.90661451416191796149 -0.17849767338786801107 0.17970787378304287074 0.79759524394345593379 2.39963813083656685166 0.08572203071857815992 1.29741358458771438578 145.41661506848032558992 0.00000000000000000000
0.58769199999999999218 0.90573199999999998155 1.70669853234777457729 0.90502048249634359234 -0.17530662112235845251 0.18121685897612768712 0.79652644034644293214 2.39095853565619353986 0.08573912706055368538 1.30070219220485827627 145.41661506848032558992 0.00000000000000000000
0.66897399999999995757 0.89002099999999995106 1.70299013693945244796 0.90437590584798766002 -0.17478292499342931721 0.18133331458528492708 0.79690021522167442392 2.38569575281402634914 0.08605589273562593011 1.30437226586751364721 145.41661506848032558992 0.00000000000000000000
0.75025600000000003398 0.87430900000000000283 1.70506156702228706123 0.90419678947765802501 -0.17465793260025197497 0.18164421093900740001 0.79690182913258278408 2.38458569883887605556 0.08605685488725663135 1.30502125380071776206 145.41661506848032558992 0.00000000000000000000
0.83153799999999999937 0.85859799999999997233 1.70207499594490041517 0.90352261716644577394 -0.17455390175568469280 0.18172498882314780388 0.79709466216801572180 2.38020364571005815790 0.08630669421691246346 1.30789249497654069820 145.41661506848032558992 0.00000000000000000000
0.91282099999999999351 0.84288700000000005286 1.70062057051549797571 0.90363065421097998886 -0.17473571347402888643 0.18150708400766540906 0.79709515674877329250 2.38097786712501502393 0.08630643553571046289 1.30744142323288414786 145.41661506848032558992 0.00000000000000000000
0.99410299999999995890 0.82717600000000002236 1.69833214087494166478 0.90366911906209779204 -0.17478464567434345844 0.18127183141357045004 0.79715699658718719434 2.38104054691870414828 0.08635721785313431320 1.30750627711270106524 145.41661506848032558992 0.00000000000000000000
1.07538500000000003531 0.81146399999999996311 1.69754424013529670034 0.90376292999912943849 -0.17470159183029296268 0.18115357712382218480 0.79715683586080576806 2.38146251327227975736 0.08635696530978953511 1.30725978581268331702 145.41661506848032558992 0.00000000000000000000
1.15666699999999988968 0.79575300000000004363 1.69689377955209463877 0.90379484340929783226 -0.17468816618500418447 0.18107387008182437849 0.79716210269626397444 2.38160467381443252677 0.08636529546854720962 1.30718547927486938853 145.41661506848032558992 0.00000000000000000000
1.23794899999999996609 0.78004200000000001314 1.69781953021721077057 0.90371863470846913735 -0.17460297456649098713 0.18121259934842148809 0.79716069209483808589 2.38110679828475380049 0.08636549271088045376 1.30747367580002249454 145.41661506848032558992 0.00000000000000000000
1.31923100000000004250 0.76432999999999995389 1.69716511076965903548 0.90352531224306764646 -0.17454891240806397201 0.18130508718986051986 0.79731134253352142771 2.37952323773936536000 0.08645622260725682739 1.30864540166547582700 145.41661506848032558992 0.00000000000000000000
1.40051299999999989687 0.74861900000000003441 1.69780705726631109265 0.90340862011062794679 -0.17446139205985017329 0.18149391546836438072 0.79743853620096116774 2.37839574924511376608 0.08650045696160595099 1.30951303033647747931 145.41661506848032558992 0.00000000000000000000
1.48179499999999997328 0.73290800000000000392 1.69916094616912860538 0.90327327768533494101 -0.17447629196525354933 0.18169727867384002917 0.79743965168245101172 2.37767581858528442851 0.08650079484539011099 1.30993574727146144809 145.41661506848032558992 0.00000000000000000000
1.56307700000000004970 0.71719599999999994466 1.70042349537283477012 0.90313912715642874485 -0.17452579908179050028 0.18188694858916309993 0.79743963460901079454 2.37700241986862081944 0.08650109419657742160 1.31032953042601429949 145.41661506848032558992 0.00000000000000000000
1.64435899999999990406 0.70148500000000002519 1.69919965507504788782 0.90306589088121336228 -0.17449756592233126029 0.18199266406976374877 0.79785596504339972856 2.37525711752257295828 0.08663865601267821404 1.31203542102657810808 145.41661506848032558992 0.00000000000000000000
1.72564099999999998047 0.68577399999999999469 1.69853878645693923133 0.90294332619973993737 -0.17456022077761657041 0.18205900043848255443 0.79803876963062103655 2.37408252490693127967 0.08671744989598999254 1.31302433194565848495 145.41661506848032558992 0.00000000000000000000
1.80692300000000005689 0.67006200000000004646 1.69781132918944988042 0.90299801314181793455 -0.17461225435182259336 0.18194973047467513649 0.79803271666541020224 2.37445081653879119798 0.08671739407026751723 1.31279851889011722754 145.41661506848032558992 0.00000000000000000000
1.88820499999999991125 0.65435100000000001597 1.69695432039876803465 0.90302900925688633915 -0.17463244931831481410 0.18183594534988356539 0.79801897755169259874 2.37468254404781076161 0.08672444438005751099 1.31264012458074619261 145.41661506848032558992 0.00000000000000000000
1.96948699999999998766 0.63863999999999998547 1.69499530265077180680 0.90312781395005004015 -0.17467106430499168557 0.18165323343020722824 0.79817112629576802973 2.37477408400273048983 0.08677751996079596797 1.31283674122282745245 145.41661506848032558992 0.00000000000000000000
2.05076899999999984203 0.62292800000000003724 1.69365990817055056539 0.90322152519519316449 -0.17470031767119020838 0.18148407211010320061 0.79820704790288654618 2.37519637953686713061 0.08679242549780799565 1.31264834966199828159 145.41661506848032558992 0.00000000000000000000
2.13205100000000014049 0.60721700000000000674 1.69298138874136183674 0.90330154826770137078 -0.17462817889986101405 0.18138559937025530711 0.79821346200878173782 2.37553257388554861507 0.08679400864372846525 1.31246191308549642329 145.41661506848032558992 0.00000000000000000000
2.21333299999999999486 0.59150599999999997625 1.69186145208195504175 0.90319859148308634378 -0.17456157537813724034 0.18132604875241220554 0.79823386969748288955 2.37484304351695074686 0.08684593283729336033 1.31289952524401587475 145.41661506848032558992 0.00000000000000000000
2.29461499999999984922 0.57579499999999994575 1.69264237619569191118 0.90305683718820350947 -0.17444325538118216068 0.18148396250464063351 0.79823866598110404524 2.37394022858502129480 0.08686542719144375868 1.31343665498825945548 145.41661506848032558992 0.00000000000000000000
2.37589700000000014768 0.56008299999999999752 1.69417728269673273367 0.90289337990003559753 -0.17447105321352951446 0.18171460014238002834 0.79823240338280232464 2.37310809138269629415 0.08686552068423061823 1.31391435505549925011 145.41661506848032558992 0.00000000000000000000
2.45717900000000000205 0.54437199999999996702 1.69478330949391953197 0.90272300058192844752 -0.17445232710577227020 0.18186025381074166773 0.79824187642428090506 2.37214104918384816045 0.08689162979092882044 1.31449731461352881112 145.41661506848032558992 0.00000000000000000000
2.53846199999999999619 0.52866100000000004755 1.69495893881801729108 0.90258612604816745861 -0.17444625378564893037 0.18193463641142015863 0.79823194650941875494 2.37142932302491793450 0.08691455938433058359 1.31489869459261665696 145.41661506848032558992 0.00000000000000000000
2.61974399999999985056 0.51294899999999998830 1.69572825257724901782 0.90234575864768695741 -0.17451493754405869585 0.18206122770575980385 0.79811785280454983216 2.37056756954885106126 0.08691979804519246733 1.31521665455884084750 145.41661506848032558992 0.00000000000000000000
2.70102600000000014902 0.49723800000000001331 1.71157642005377197414 0.90099824837051623039 -0.17307018827361289603 0.18446418863995586723 0.79808610365128551667 2.36194593020467902278 0.08692751275601799665 1.32023687891684571305 145.41661506848032558992 0.00000000000000000000
2.78230800000000000338 0.48152699999999998282 1.81178298194061659920 0.89176516912518555280 -0.16700179190971131682 0.20000621799534520906 0.79793910858323258140 2.30782450497557878322 0.08703518388832885699 1.35230112815094538625 145.41661506848032558992 0.00000000000000000000
2.86358999999999985775 0.46581499999999997907 2.04486874684063923979 0.86847021719256467520 -0.14912932263306241665 0.23860680743299772510 0.79663975766826955471 2.18018046181240121584 0.08764985815416172221 1.42939902405482510694 145.41661506848032558992 0.00000000000000000000
2.94487200000000015621 0.45010400000000000409 2.93520540611252211960 0.78553899676790450712 -0.12224177029056915167 0.40279537909301454945 0.79630887404538452934 1.81374628282913930022 0.08920528427528173765 1.68105556892677432401 145.41661506848032558992 0.00000000000000000000
3.02615400000000001057 0.43439299999999997359 3.73712506827198565063 0.72362727581693497836 -0.13904022591628062422 0.55922328632569295870 0.79522420738325205747 1.60990236973602374171 0.08831461134011957259 1.83308964306547705903 145.41661506848032558992 0.00000000000000000000
3.10743599999999986494 0.41868100000000002536 3.91449108583443283749 0.70964629616150154412 -0.13757066013434002261 0.59670464230603204037 0.79478355511245979415 1.56475685689952159763 0.08831083371910489199 1.86732622656892233159 145.41661506848032558992 0.00000000000000000000