 TITLE = Shock normals
 VARIABLES = X Y Z(1) Z(2) NX NY
 ZONE T="sampletext",F=FEPOINT,ET=TRIANGLE, N=          61 , E=          60
   0.0000000000000000       -5.1048570194200935E-002   1.0000000000000000        1.0000000000000000      -0.68001663489465647      -0.73319668320754672     
  -1.3592590807164544E-003  -4.9775099630070874E-002   1.0000000000000000        1.0000000000000000      -0.68688370685794353      -0.72676734465239345     
  -2.4489779673807261E-003  -4.8735346797013586E-002   1.0000000000000000        1.0000000000000000      -0.69286087386129291      -0.72107129291919936     
  -3.5434565334052839E-003  -4.7670884952200177E-002   1.0000000000000000        1.0000000000000000      -0.70183667388980797      -0.71233789958368166     
  -4.9907537231823401E-003  -4.6222854060744084E-002   1.0000000000000000        1.0000000000000000      -0.71205797511392910      -0.70212067344342688     
  -6.4106347462118771E-003  -4.4758008169267040E-002   1.0000000000000000        1.0000000000000000      -0.72404275753653558      -0.68975509078142327     
  -7.8081476076890498E-003  -4.3265899015171874E-002   1.0000000000000000        1.0000000000000000      -0.73591042014866725      -0.67707891232603901     
  -9.1707772551735348E-003  -4.1760847486513243E-002   1.0000000000000000        1.0000000000000000      -0.74673249390875807      -0.66512448649918643     
  -1.0518082224334441E-002  -4.0223755741512802E-002   1.0000000000000000        1.0000000000000000      -0.75614441547953781      -0.65440478523549039     
  -1.1837379912583412E-002  -3.8669401496725632E-002   1.0000000000000000        1.0000000000000000      -0.76873643174569528      -0.63956571085924885     
  -1.3129514801846060E-002  -3.7086260425402390E-002   1.0000000000000000        1.0000000000000000      -0.78001366648102310      -0.62576247898290560     
  -1.4400080198300762E-002  -3.5468154512375567E-002   1.0000000000000000        1.0000000000000000      -0.79266379056850034      -0.60965901545173296     
  -1.5626052261226604E-002  -3.3838125714872283E-002   1.0000000000000000        1.0000000000000000      -0.80444238203260732      -0.59403068438398421     
  -1.6820389747559297E-002  -3.2176661920333277E-002   1.0000000000000000        1.0000000000000000      -0.81924261897685691      -0.57344706054869676     
  -1.7964491635247107E-002  -3.0496206986790710E-002   1.0000000000000000        1.0000000000000000      -0.83587350304916253      -0.54892211369220822     
  -1.9067582185166538E-002  -2.8781920195938088E-002   1.0000000000000000        1.0000000000000000      -0.84393022656206129      -0.53645295478253063     
  -2.0134382516187245E-002  -2.7054341906079422E-002   1.0000000000000000        1.0000000000000000      -0.85791805118510389      -0.51378654853037309     
  -2.1160468458048594E-002  -2.5291241293787025E-002   1.0000000000000000        1.0000000000000000      -0.86925880186600435      -0.49435729526171523     
  -2.2145598881301732E-002  -2.3496293316355155E-002   1.0000000000000000        1.0000000000000000      -0.88299880953224108      -0.46937522555482730     
  -2.3071888495858412E-002  -2.1680452964878558E-002   1.0000000000000000        1.0000000000000000      -0.89925042145952705      -0.43743420020028490     
  -2.3943715439289890E-002  -1.9817899420907538E-002   1.0000000000000000        1.0000000000000000      -0.90989554014070029      -0.41483744531088729     
  -2.4768473351558313E-002  -1.7908255662320873E-002   1.0000000000000000        1.0000000000000000      -0.92721555320912208      -0.37452812696391963     
  -2.5479792256372147E-002  -1.6066335037931052E-002   1.0000000000000000        1.0000000000000000      -0.93827666336001014      -0.34588567908198531     
  -2.6181423856409168E-002  -1.4061601191006795E-002   1.0000000000000000        1.0000000000000000      -0.96159013447272601      -0.27448936825444598     
  -2.6631244220154646E-002  -1.2064952500941967E-002   1.0000000000000000        1.0000000000000000      -0.97093194374301584      -0.23935571983850523     
  -2.7125257435688027E-002  -1.0211999292653248E-002   1.0000000000000000        1.0000000000000000      -0.97340395453499384      -0.22909548510530672     
  -2.7526446095865728E-002  -8.2351365558298306E-003   1.0000000000000000        1.0000000000000000      -0.98148052272598085      -0.19156195736506657     
  -2.7902670497384645E-002  -6.2268237866681337E-003   1.0000000000000000        1.0000000000000000      -0.98963410978986854      -0.14361172911853165     
  -2.8113063180427549E-002  -4.1904855463219016E-003   1.0000000000000000        1.0000000000000000      -0.99517762373076690       -9.8089230935837046E-002
  -2.8309917631280136E-002  -2.0888375958897690E-003   1.0000000000000000        1.0000000000000000      -0.99908455690845999       -4.2779062016671990E-002
  -2.8297551048212362E-002  -5.0660073053729664E-005   1.0000000000000000        1.0000000000000000      -0.99999784771549016        2.0747444149818097E-003
  -2.8302244508544488E-002   2.1148811384846026E-003   1.0000000000000000        1.0000000000000000      -0.99886387142914324        4.7654657207705058E-002
  -2.8113587341072367E-002   4.1169768574275886E-003   1.0000000000000000        1.0000000000000000      -0.99533157805781947        9.6514505235901771E-002
  -2.7913695223172750E-002   6.1216916072038066E-003   1.0000000000000000        1.0000000000000000      -0.99269972790022654       0.12061198210300733     
  -2.7618800897617292E-002   8.1696444460915424E-003   1.0000000000000000        1.0000000000000000      -0.98804017253891907       0.15419668430048394     
  -2.7299498568674672E-002   1.0077239562162277E-002   1.0000000000000000        1.0000000000000000      -0.97787418888070821       0.20919385918543812     
  -2.6758964924947243E-002   1.2112148135229877E-002   1.0000000000000000        1.0000000000000000      -0.96222721940089162       0.27224764139295760     
  -2.6159548147608958E-002   1.4108715157651533E-002   1.0000000000000000        1.0000000000000000      -0.94895830058805186       0.31540155951586019     
  -2.5458889302685171E-002   1.6030838848276566E-002   1.0000000000000000        1.0000000000000000      -0.93732286379610885       0.34846211989979770     
  -2.4712121980474028E-002   1.7999894300620191E-002   1.0000000000000000        1.0000000000000000      -0.93266857639633638       0.36073442669480710     
  -2.3909298059551030E-002   1.9861352468653629E-002   1.0000000000000000        1.0000000000000000      -0.90934765779150561       0.41603706237437921     
  -2.3044164837766012E-002   2.1692673509925913E-002   1.0000000000000000        1.0000000000000000      -0.89676652812701307       0.44250400453670791     
  -2.2117225069875356E-002   2.3497822936548250E-002   1.0000000000000000        1.0000000000000000      -0.88189892750200494       0.47143852374494549     
  -2.1137765705501497E-002   2.5253144840280291E-002   1.0000000000000000        1.0000000000000000      -0.86474480639813400       0.50221152894716936     
  -2.0093557311931888E-002   2.7007229976963098E-002   1.0000000000000000        1.0000000000000000      -0.85197099168158430       0.52358898893416161     
  -1.8996050455519987E-002   2.8742698193855200E-002   1.0000000000000000        1.0000000000000000      -0.83788003215156304       0.54585442356153491     
  -1.7854168015181596E-002   3.0449971399092238E-002   1.0000000000000000        1.0000000000000000      -0.82403524971626740       0.56653853110362129     
  -1.6681076266203240E-002   3.2123052684851473E-002   1.0000000000000000        1.0000000000000000      -0.81244041311883541       0.58304423085328272     
  -1.5480134608062242E-002   3.3759879986151660E-002   1.0000000000000000        1.0000000000000000      -0.79988453254727909       0.60015392574873705     
  -1.4239071545713017E-002   3.5378854925949686E-002   1.0000000000000000        1.0000000000000000      -0.78718513411148772       0.61671676208278869     
  -1.2958706401586067E-002   3.6979011718078429E-002   1.0000000000000000        1.0000000000000000      -0.77425569984827924       0.63287290292163034     
  -1.1656615398840714E-002   3.8540553872580326E-002   1.0000000000000000        1.0000000000000000      -0.76154288223214639       0.64811452577577300     
  -1.0328265332934806E-002   4.0077435658971823E-002   1.0000000000000000        1.0000000000000000      -0.75075463104705531       0.66058117136457939     
  -8.9702469964472332E-003   4.1596751923158343E-002   1.0000000000000000        1.0000000000000000      -0.73999269965430747       0.67261490056222351     
  -7.5887295933581506E-003   4.3087115851648497E-002   1.0000000000000000        1.0000000000000000      -0.72720159424975384       0.68642395159304892     
  -6.1761032739977243E-003   4.4563728616911678E-002   1.0000000000000000        1.0000000000000000      -0.71711237064733879       0.69695756532557529     
  -4.7344015171461636E-003   4.6027859129826716E-002   1.0000000000000000        1.0000000000000000      -0.70745107322125234       0.70676232143352014     
  -3.2740176977433351E-003   4.7472176215012818E-002   1.0000000000000000        1.0000000000000000      -0.69846050815348137       0.71564859990779017     
  -2.1769611794684668E-003   4.8527145959783489E-002   1.0000000000000000        1.0000000000000000      -0.68883145460720563       0.72492153171479279     
  -1.0857015451055671E-003   4.9556511727782568E-002   1.0000000000000000        1.0000000000000000      -0.68269377009928212       0.73070460260465619     
   0.0000000000000000        5.0563395320995019E-002   1.0000000000000000        1.0000000000000000      -0.67690060523889795       0.73607443280364904     
           1           2           1
           2           3           2
           3           4           3
           4           5           4
           5           6           5
           6           7           6
           7           8           7
           8           9           8
           9          10           9
          10          11          10
          11          12          11
          12          13          12
          13          14          13
          14          15          14
          15          16          15
          16          17          16
          17          18          17
          18          19          18
          19          20          19
          20          21          20
          21          22          21
          22          23          22
          23          24          23
          24          25          24
          25          26          25
          26          27          26
          27          28          27
          28          29          28
          29          30          29
          30          31          30
          31          32          31
          32          33          32
          33          34          33
          34          35          34
          35          36          35
          36          37          36
          37          38          37
          38          39          38
          39          40          39
          40          41          40
          41          42          41
          42          43          42
          43          44          43
          44          45          44
          45          46          45
          46          47          46
          47          48          47
          48          49          48
          49          50          49
          50          51          50
          51          52          51
          52          53          52
          53          54          53
          54          55          54
          55          56          55
          56          57          56
          57          58          57
          58          59          58
          59          60          59
          60          61          60
