TITLE      =  Unstructured grid data 
VARIABLES  =  x  y  rho  u  v p H  Ma  s T time  sensor
ZONE    N  =  0    E  =  0    F = FEPOINT    ET = TRIANGLE 

  0.0000000000000000  0.0200000000000000  0.9744414310439999  0.7563116808389506  0.0267297986705000  0.0733825003051429  0.5499362804390066  0.0000000000000000  0.0000000000000000  0.0000000000000000  0.0000000000000000  0.0000000000000000
 -0.0011400000000000  0.0199670000000000  1.0314516177659006  0.7496236549914698  0.0527401922900560  0.0769412027012667  0.5434413110686471  0.0000000000000000  0.0000000000000000  0.0000000000000000  0.0000000000000000  0.0000000000000000
 -0.0022880000000000  0.0198690000000000  1.1964949869781127  0.7198666083353420  0.0873018144148531  0.0949212736069906  0.5405795003974970  0.0000000000000000  0.0000000000000000  0.0000000000000000  0.0000000000000000  0.0000000000000000
 -0.0034380000000000  0.0197020000000000  1.3744713476626174  0.6866972794089583  0.1290699703821183  0.1158486238074510  0.5391069317301055  0.0000000000000000  0.0000000000000000  0.0000000000000000  0.0000000000000000  0.0000000000000000
 -0.0045870000000000  0.0194670000000000  1.5504092437891739  0.6574577889309866  0.1586287694494431  0.1373013986583438  0.5386604951852288  0.0000000000000000  0.0000000000000000  0.0000000000000000  0.0000000000000000  0.0000000000000000
 -0.0057290000000000  0.0191620000000000  1.7518128781091062  0.6232169780107762  0.1889551177105468  0.1632436233525769  0.5382010977607383  0.0000000000000000  0.0000000000000000  0.0000000000000000  0.0000000000000000  0.0000000000000000
 -0.0068610000000000  0.0187860000000000  1.9665742802440656  0.5870872915636690  0.2153039702930661  0.1922967920978874  0.5377528254288829  0.0000000000000000  0.0000000000000000  0.0000000000000000  0.0000000000000000  0.0000000000000000
 -0.0079770000000000  0.0183400000000000  2.1810997163013401  0.5509413612248515  0.2397298256512463  0.2226246481523418  0.5377480656441735  0.0000000000000000  0.0000000000000000  0.0000000000000000  0.0000000000000000  0.0000000000000000
 -0.0090730000000000  0.0178240000000000  2.4464507127284332  0.5075640793039071  0.2593532662183812  0.2619836652464485  0.5372480608485133  0.0000000000000000  0.0000000000000000  0.0000000000000000  0.0000000000000000  0.0000000000000000
 -0.0101430000000000  0.0172370000000000  2.6786703495093720  0.4693271998483385  0.2779886682546534  0.2976401505232860  0.5376749611055420  0.0000000000000000  0.0000000000000000  0.0000000000000000  0.0000000000000000  0.0000000000000000
 -0.0111830000000000  0.0165810000000000  3.0225274723419431  0.4191408830353556  0.2859153320458987  0.3530449652904707  0.5375292581214115  0.0000000000000000  0.0000000000000000  0.0000000000000000  0.0000000000000000  0.0000000000000000
 -0.0121870000000000  0.0158580000000000  3.2511023214900261  0.3827657796924986  0.2940799493011076  0.3910771578113221  0.5375135465771660  0.0000000000000000  0.0000000000000000  0.0000000000000000  0.0000000000000000  0.0000000000000000
 -0.0131510000000000  0.0150690000000000  3.5972286945277459  0.3341710751560621  0.2952080825769661  0.4512449386959779  0.5384573993287513  0.0000000000000000  0.0000000000000000  0.0000000000000000  0.0000000000000000  0.0000000000000000
 -0.0140690000000000  0.0142150000000000  3.8005006665563421  0.2989628026905606  0.2993818888909872  0.4874199567847341  0.5383844283407364  0.0000000000000000  0.0000000000000000  0.0000000000000000  0.0000000000000000  0.0000000000000000
 -0.0149370000000000  0.0133000000000000  4.0720832170317935  0.2625143934124144  0.2951715150756342  0.5369255423286895  0.5395133829189090  0.0000000000000000  0.0000000000000000  0.0000000000000000  0.0000000000000000  0.0000000000000000
 -0.0157500000000000  0.0123260000000000  4.3642062417706136  0.2194629124285405  0.2812922722857917  0.5921825484489593  0.5385623857263063  0.0000000000000000  0.0000000000000000  0.0000000000000000  0.0000000000000000  0.0000000000000000
 -0.0165040000000000  0.0112980000000000  4.6455938439052167  0.1848286540124033  0.2707999410237210  0.6469266341156893  0.5411429824229675  0.0000000000000000  0.0000000000000000  0.0000000000000000  0.0000000000000000  0.0000000000000000
 -0.0171930000000000  0.0102170000000000  4.8962027845856575  0.1494737777222945  0.2514131792990090  0.6957638721875844  0.5401351177145148  0.0000000000000000  0.0000000000000000  0.0000000000000000  0.0000000000000000  0.0000000000000000
 -0.0178150000000000  0.0090890000000000  5.1250784918295009  0.1180271856284186  0.2301646752854148  0.7418492588692248  0.5400741001595997  0.0000000000000000  0.0000000000000000  0.0000000000000000  0.0000000000000000  0.0000000000000000
 -0.0183660000000000  0.0079180000000000  5.3428819868889050  0.0885648050484720  0.2065129882249145  0.7863241687058378  0.5403486789284216  0.0000000000000000  0.0000000000000000  0.0000000000000000  0.0000000000000000  0.0000000000000000
 -0.0188410000000000  0.0067090000000000  5.5365409905186285  0.0645376049484346  0.1788812969030949  0.8264204525010284  0.5405147859350302  0.0000000000000000  0.0000000000000000  0.0000000000000000  0.0000000000000000  0.0000000000000000
 -0.0192380000000000  0.0054670000000000  5.6998570250942251  0.0412430711573667  0.1465532600490643  0.8603834878343285  0.5399083268897398  0.0000000000000000  0.0000000000000000  0.0000000000000000  0.0000000000000000  0.0000000000000000
 -0.0195550000000000  0.0041970000000000  5.8079364515221927  0.0249635809614549  0.1174926425834245  0.8837906032264939  0.5398069906586098  0.0000000000000000  0.0000000000000000  0.0000000000000000  0.0000000000000000  0.0000000000000000
 -0.0197880000000000  0.0029040000000000  5.9040089167458394  0.0123343286038302  0.0860084528226389  0.9044749718299374  0.5399634161420328  0.0000000000000000  0.0000000000000000  0.0000000000000000  0.0000000000000000  0.0000000000000000
 -0.0199360000000000  0.0015950000000000  5.9713840838374947  0.0035282422598306  0.0556537092273706  0.9186978983939180  0.5400301598389382  0.0000000000000000  0.0000000000000000  0.0000000000000000  0.0000000000000000  0.0000000000000000
 -0.0199980000000000  0.0002760000000000  6.0222141313510784  0.0007856686192822  0.0272613940765322  0.9309903406592678  0.5414463493458799  0.0000000000000000  0.0000000000000000  0.0000000000000000  0.0000000000000000  0.0000000000000000
 -0.0199730000000000 -0.0010470000000000  6.0177014577812331  0.0008230838612921 -0.0296440389207311  0.9304107208224385  0.5415828068271351  0.0000000000000000  0.0000000000000000  0.0000000000000000  0.0000000000000000  0.0000000000000000
 -0.0198590000000000 -0.0023690000000000  5.9444850366754673  0.0076106494799777 -0.0706810157913646  0.9140328929070585  0.5406920886366591  0.0000000000000000  0.0000000000000000  0.0000000000000000  0.0000000000000000  0.0000000000000000
 -0.0196580000000000 -0.0036830000000000  5.8548660577421643  0.0210339855454828 -0.1094522259267727  0.8947916544888272  0.5411116106898717  0.0000000000000000  0.0000000000000000  0.0000000000000000  0.0000000000000000  0.0000000000000000
 -0.0193700000000000 -0.0049820000000000  5.7172529539657670  0.0351159059464352 -0.1392599308033531  0.8651996013537951  0.5399729486333846  0.0000000000000000  0.0000000000000000  0.0000000000000000  0.0000000000000000  0.0000000000000000
 -0.0189950000000000 -0.0062600000000000  5.5667714814981046  0.0564269425672533 -0.1702396182819029  0.8332774574783377  0.5399898633700403  0.0000000000000000  0.0000000000000000  0.0000000000000000  0.0000000000000000  0.0000000000000000
 -0.0185360000000000 -0.0075120000000000  5.3987402499385215  0.0801313567964064 -0.1977149042488402  0.7979744982733725  0.5400824877214117  0.0000000000000000  0.0000000000000000  0.0000000000000000  0.0000000000000000  0.0000000000000000
 -0.0179940000000000 -0.0087310000000000  5.1977443153075633  0.1086465640628753 -0.2232384157317196  0.7564230256351204  0.5401715651577739  0.0000000000000000  0.0000000000000000  0.0000000000000000  0.0000000000000000  0.0000000000000000
 -0.0173720000000000 -0.0099110000000000  4.9721316937663431  0.1396477993057917 -0.2454184013276569  0.7104606704269212  0.5399757623180479  0.0000000000000000  0.0000000000000000  0.0000000000000000  0.0000000000000000  0.0000000000000000
 -0.0166720000000000 -0.0110470000000000  4.7107158781395624  0.1765837216326269 -0.2675233951751180  0.6583970171856784  0.5405556214765151  0.0000000000000000  0.0000000000000000  0.0000000000000000  0.0000000000000000  0.0000000000000000
 -0.0158990000000000 -0.0121330000000000  4.4290201538585459  0.2106711671386177 -0.2796964998875599  0.6037732053096985  0.5384334891513882  0.0000000000000000  0.0000000000000000  0.0000000000000000  0.0000000000000000  0.0000000000000000
 -0.0150560000000000 -0.0131650000000000  4.1077446874072123  0.2565866241569003 -0.2946162395922422  0.5430102232115722  0.5389890624711953  0.0000000000000000  0.0000000000000000  0.0000000000000000  0.0000000000000000  0.0000000000000000
 -0.0141470000000000 -0.0141370000000000  3.8059717671012563  0.2989802911524964 -0.3021443600391641  0.4877123202361788  0.5388440986337054  0.0000000000000000  0.0000000000000000  0.0000000000000000  0.0000000000000000  0.0000000000000000
 -0.0131770000000000 -0.0150460000000000  3.5779068967450778  0.3348587714928435 -0.2995513216598452  0.4472279119053825  0.5384204729360971  0.0000000000000000  0.0000000000000000  0.0000000000000000  0.0000000000000000  0.0000000000000000
 -0.0121500000000000 -0.0158860000000000  3.2041869152032709  0.3905250460746750 -0.2968220340393803  0.3825462903948090  0.5381698339737082  0.0000000000000000  0.0000000000000000  0.0000000000000000  0.0000000000000000  0.0000000000000000
 -0.0110720000000000 -0.0166550000000000  2.9682441142671032  0.4272619105565942 -0.2894108309234106  0.3436459596810330  0.5383652336407074  0.0000000000000000  0.0000000000000000  0.0000000000000000  0.0000000000000000  0.0000000000000000
 -0.0099490000000000 -0.0173500000000000  2.6684140450293068  0.4746552615256535 -0.2757901442912152  0.2956332433073912  0.5384434530677172  0.0000000000000000  0.0000000000000000  0.0000000000000000  0.0000000000000000  0.0000000000000000
 -0.0087850000000000 -0.0179670000000000  2.3822859610188347  0.5209959845761757 -0.2573832572837648  0.2517836226944120  0.5387562133130697  0.0000000000000000  0.0000000000000000  0.0000000000000000  0.0000000000000000  0.0000000000000000
 -0.0075860000000000 -0.0185050000000000  2.1176188550022501  0.5648356958016049 -0.2341893981026949  0.2130754293456551  0.5391130437102901  0.0000000000000000  0.0000000000000000  0.0000000000000000  0.0000000000000000  0.0000000000000000
 -0.0063590000000000 -0.0189620000000000  1.8770835143289382  0.6060265908541863 -0.2059240357333040  0.1795742672252993  0.5396696982345427  0.0000000000000000  0.0000000000000000  0.0000000000000000  0.0000000000000000  0.0000000000000000
 -0.0051090000000000 -0.0193360000000000  1.6525112582978649  0.6449287998541361 -0.1732176631475001  0.1498158685986602  0.5402770590604092  0.0000000000000000  0.0000000000000000  0.0000000000000000  0.0000000000000000  0.0000000000000000
 -0.0038420000000000 -0.0196270000000000  1.4462695742420062  0.6810160766572504 -0.1369979370432315  0.1238892758774721  0.5410900801826396  0.0000000000000000  0.0000000000000000  0.0000000000000000  0.0000000000000000  0.0000000000000000
 -0.0025640000000000 -0.0198350000000000  1.2543167763731571  0.7151662989716233 -0.0968384494724786  0.1010250665904988  0.5423169387567058  0.0000000000000000  0.0000000000000000  0.0000000000000000  0.0000000000000000  0.0000000000000000
 -0.0012820000000000 -0.0199590000000000  1.0813810793707601  0.7448991569541294 -0.0523897773980802  0.0816285966825986  0.5430089882847257  0.0000000000000000  0.0000000000000000  0.0000000000000000  0.0000000000000000  0.0000000000000000
  0.0000000000000000 -0.0200000000000000  0.9845737495269802  0.7551559940317725 -0.0181862430525019  0.0719779509485887  0.5411655995152063  0.0000000000000000  0.0000000000000000  0.0000000000000000  0.0000000000000000  0.0000000000000000
  0.0000000000000000 -0.0212830000000000  1.1816320501228712  0.7130975940797452 -0.0742658709693793  0.0942553419523899  0.5361965900357958  0.0000000000000000  0.0000000000000000  0.0000000000000000  0.0000000000000000  0.0000000000000000
  0.0000000000000000 -0.0225770000000000  1.3999084486713864  0.6815193713036634 -0.1191149585395747  0.1197623785963387  0.5387540404707334  0.0000000000000000  0.0000000000000000  0.0000000000000000  0.0000000000000000  0.0000000000000000
  0.0000000000000000 -0.0238950000000000  1.5687798980641663  0.6536072351021498 -0.1483661533492143  0.1404577032221854  0.5379732624734063  0.0000000000000000  0.0000000000000000  0.0000000000000000  0.0000000000000000  0.0000000000000000
  0.0000000000000000 -0.0252480000000000  1.7180635423572272  0.6340314515406479 -0.1711238545824566  0.1586109948358586  0.5387583413123009  0.0000000000000000  0.0000000000000000  0.0000000000000000  0.0000000000000000  0.0000000000000000
  0.0000000000000000 -0.0266490000000000  1.8604619945863061  0.6174864648197798 -0.1875607698312920  0.1754061013030200  0.5382175700661765  0.0000000000000000  0.0000000000000000  0.0000000000000000  0.0000000000000000  0.0000000000000000
  0.0000000000000000 -0.0281110000000000  2.0014364793139574  0.6064293527305541 -0.2047729350274117  0.1910446673489797  0.5389324698440680  0.0000000000000000  0.0000000000000000  0.0000000000000000  0.0000000000000000  0.0000000000000000
  0.0000000000000000 -0.0296460000000000  2.1349657912135558  0.5957695321422508 -0.2192034718451223  0.2059675425152664  0.5391528680200377  0.0000000000000000  0.0000000000000000  0.0000000000000000  0.0000000000000000  0.0000000000000000
  0.0000000000000000 -0.0312690000000000  2.2720563307223620  0.5873726748052988 -0.2334362695992391  0.2200744093173210  0.5387642479257986  0.0000000000000000  0.0000000000000000  0.0000000000000000  0.0000000000000000  0.0000000000000000
  0.0000000000000000 -0.0329940000000000  2.4241815505997626  0.5817848145859635 -0.2474102414542469  0.2341540035705948  0.5379110307081449  0.0000000000000000  0.0000000000000000  0.0000000000000000  0.0000000000000000  0.0000000000000000
  0.0000000000000000 -0.0348370000000000  2.5935470234340281  0.5795578108298434 -0.2622886906373184  0.2483888198263128  0.5375428131490267  0.0000000000000000  0.0000000000000000  0.0000000000000000  0.0000000000000000  0.0000000000000000
  0.0000000000000000 -0.0368160000000000  2.7902405331285909  0.5792174792317044 -0.2779604096080829  0.2628620049210052  0.5361042154847254  0.0000000000000000  0.0000000000000000  0.0000000000000000  0.0000000000000000  0.0000000000000000
  0.0000000000000000 -0.0389470000000000  3.0230753173551106  0.5839048456833560 -0.2964969039005637  0.2779943047969171  0.5362787250486738  0.0000000000000000  0.0000000000000000  0.0000000000000000  0.0000000000000000  0.0000000000000000
  0.0000000000000000 -0.0412510000000000  3.3194506417796008  0.5889283464827622 -0.3147828541079007  0.2963441075907229  0.5354250810542485  0.0000000000000000  0.0000000000000000  0.0000000000000000  0.0000000000000000  0.0000000000000000
  0.0000000000000000 -0.0437480000000000  3.7016643388534765  0.6003410322235277 -0.3385911875047530  0.3159649253447482  0.5362780290779205  0.0000000000000000  0.0000000000000000  0.0000000000000000  0.0000000000000000  0.0000000000000000
  0.0000000000000000 -0.0464610000000000  4.0557695329795509  0.6064016599995384 -0.3607932909239316  0.3367865119662252  0.5395834249438546  0.0000000000000000  0.0000000000000000  0.0000000000000000  0.0000000000000000  0.0000000000000000
  0.0000000000000000 -0.0494150000000000  4.7842338215237454  0.6203380355973968 -0.3897225223609559  0.3697250081468100  0.5388310359554676  0.0000000000000000  0.0000000000000000  0.0000000000000000  0.0000000000000000  0.0000000000000000
  0.0000000000000000 -0.0526360000000000  0.9999999999998179  1.0000000000001710  0.0000000000000279  0.0108868571428149  0.5381040000000300  0.0000000000000000  0.0000000000000000  0.0000000000000000  0.0000000000000000  0.0000000000000000
  0.0000000000000000 -0.0561530000000000  0.9999999999996101  1.0000000000000540  0.0000000000001163  0.0108868571428395  0.5381040000000069  0.0000000000000000  0.0000000000000000  0.0000000000000000  0.0000000000000000  0.0000000000000000
  0.0000000000000000 -0.0600000000000000  1.0000000000000000  1.0000000000000000  0.0000000000000000  0.0108868571428572  0.5381040000000000  0.0000000000000000  0.0000000000000000  0.0000000000000000  0.0000000000000000  0.0000000000000000
 -0.0028500000000000 -0.0587310000000000  1.0000000000000000  1.0000000000000000  0.0000000000000000  0.0108868571428572  0.5381040000000000  0.0000000000000000  0.0000000000000000  0.0000000000000000  0.0000000000000000  0.0000000000000000
 -0.0056360000000000 -0.0573270000000000  1.0000000000000000  1.0000000000000000  0.0000000000000000  0.0108868571428572  0.5381040000000000  0.0000000000000000  0.0000000000000000  0.0000000000000000  0.0000000000000000  0.0000000000000000
 -0.0083510000000000 -0.0557910000000000  1.0000000000000000  1.0000000000000000  0.0000000000000000  0.0108868571428572  0.5381040000000000  0.0000000000000000  0.0000000000000000  0.0000000000000000  0.0000000000000000  0.0000000000000000
 -0.0109900000000000 -0.0541270000000000  1.0000000000000000  1.0000000000000000  0.0000000000000000  0.0108868571428572  0.5381040000000000  0.0000000000000000  0.0000000000000000  0.0000000000000000  0.0000000000000000  0.0000000000000000
 -0.0135460000000000 -0.0523380000000000  1.0000000000000000  1.0000000000000000  0.0000000000000000  0.0108868571428572  0.5381040000000000  0.0000000000000000  0.0000000000000000  0.0000000000000000  0.0000000000000000  0.0000000000000000
 -0.0160130000000000 -0.0504280000000000  1.0000000000000000  1.0000000000000000  0.0000000000000000  0.0108868571428572  0.5381040000000000  0.0000000000000000  0.0000000000000000  0.0000000000000000  0.0000000000000000  0.0000000000000000
 -0.0183850000000000 -0.0484020000000000  1.0000000000000000  1.0000000000000000  0.0000000000000000  0.0108868571428572  0.5381040000000000  0.0000000000000000  0.0000000000000000  0.0000000000000000  0.0000000000000000  0.0000000000000000
 -0.0206570000000000 -0.0462650000000000  1.0000000000000000  1.0000000000000000  0.0000000000000000  0.0108868571428572  0.5381040000000000  0.0000000000000000  0.0000000000000000  0.0000000000000000  0.0000000000000000  0.0000000000000000
 -0.0228250000000000 -0.0440210000000000  1.0000000000000000  1.0000000000000000  0.0000000000000000  0.0108868571428572  0.5381040000000000  0.0000000000000000  0.0000000000000000  0.0000000000000000  0.0000000000000000  0.0000000000000000
 -0.0248820000000000 -0.0416750000000000  1.0000000000000000  1.0000000000000000  0.0000000000000000  0.0108868571428572  0.5381040000000000  0.0000000000000000  0.0000000000000000  0.0000000000000000  0.0000000000000000  0.0000000000000000
 -0.0268240000000000 -0.0392340000000000  1.0000000000000000  1.0000000000000000  0.0000000000000000  0.0108868571428572  0.5381040000000000  0.0000000000000000  0.0000000000000000  0.0000000000000000  0.0000000000000000  0.0000000000000000
 -0.0286470000000000 -0.0367020000000000  1.0000000000000000  1.0000000000000000  0.0000000000000000  0.0108868571428572  0.5381040000000000  0.0000000000000000  0.0000000000000000  0.0000000000000000  0.0000000000000000  0.0000000000000000
 -0.0303460000000000 -0.0340860000000000  1.0000000000000000  1.0000000000000000  0.0000000000000000  0.0108868571428572  0.5381040000000000  0.0000000000000000  0.0000000000000000  0.0000000000000000  0.0000000000000000  0.0000000000000000
 -0.0319180000000000 -0.0313910000000000  1.0000000000000000  1.0000000000000000  0.0000000000000000  0.0108868571428572  0.5381040000000000  0.0000000000000000  0.0000000000000000  0.0000000000000000  0.0000000000000000  0.0000000000000000
 -0.0333580000000000 -0.0286240000000000  1.0000000000000000  1.0000000000000000  0.0000000000000000  0.0108868571428572  0.5381040000000000  0.0000000000000000  0.0000000000000000  0.0000000000000000  0.0000000000000000  0.0000000000000000
 -0.0346650000000000 -0.0257900000000000  1.0000000000000000  1.0000000000000000  0.0000000000000000  0.0108868571428572  0.5381040000000000  0.0000000000000000  0.0000000000000000  0.0000000000000000  0.0000000000000000  0.0000000000000000
 -0.0358330000000000 -0.0228980000000000  1.0000000000000000  1.0000000000000000  0.0000000000000000  0.0108868571428572  0.5381040000000000  0.0000000000000000  0.0000000000000000  0.0000000000000000  0.0000000000000000  0.0000000000000000
 -0.0368620000000000 -0.0199530000000000  1.0000000000000000  1.0000000000000000  0.0000000000000000  0.0108868571428572  0.5381040000000000  0.0000000000000000  0.0000000000000000  0.0000000000000000  0.0000000000000000  0.0000000000000000
 -0.0377480000000000 -0.0169610000000000  1.0000000000000000  1.0000000000000000  0.0000000000000000  0.0108868571428572  0.5381040000000000  0.0000000000000000  0.0000000000000000  0.0000000000000000  0.0000000000000000  0.0000000000000000
 -0.0384900000000000 -0.0139310000000000  1.0000000000000000  1.0000000000000000  0.0000000000000000  0.0108868571428572  0.5381040000000000  0.0000000000000000  0.0000000000000000  0.0000000000000000  0.0000000000000000  0.0000000000000000
 -0.0390850000000000 -0.0108690000000000  1.0000000000000000  1.0000000000000000  0.0000000000000000  0.0108868571428572  0.5381040000000000  0.0000000000000000  0.0000000000000000  0.0000000000000000  0.0000000000000000  0.0000000000000000
 -0.0395330000000000 -0.0077810000000000  1.0000000000000000  1.0000000000000000  0.0000000000000000  0.0108868571428572  0.5381040000000000  0.0000000000000000  0.0000000000000000  0.0000000000000000  0.0000000000000000  0.0000000000000000
 -0.0398320000000000 -0.0046760000000000  1.0000000000000000  1.0000000000000000  0.0000000000000000  0.0108868571428572  0.5381040000000000  0.0000000000000000  0.0000000000000000  0.0000000000000000  0.0000000000000000  0.0000000000000000
 -0.0399810000000000 -0.0015600000000000  1.0000000000000000  1.0000000000000000  0.0000000000000000  0.0108868571428572  0.5381040000000000  0.0000000000000000  0.0000000000000000  0.0000000000000000  0.0000000000000000  0.0000000000000000
 -0.0399810000000000  0.0015600000000000  1.0000000000000000  1.0000000000000000  0.0000000000000000  0.0108868571428572  0.5381040000000000  0.0000000000000000  0.0000000000000000  0.0000000000000000  0.0000000000000000  0.0000000000000000
 -0.0398320000000000  0.0046760000000000  1.0000000000000000  1.0000000000000000  0.0000000000000000  0.0108868571428572  0.5381040000000000  0.0000000000000000  0.0000000000000000  0.0000000000000000  0.0000000000000000  0.0000000000000000
 -0.0395330000000000  0.0077810000000000  1.0000000000000000  1.0000000000000000  0.0000000000000000  0.0108868571428572  0.5381040000000000  0.0000000000000000  0.0000000000000000  0.0000000000000000  0.0000000000000000  0.0000000000000000
 -0.0390850000000000  0.0108690000000000  1.0000000000000000  1.0000000000000000  0.0000000000000000  0.0108868571428572  0.5381040000000000  0.0000000000000000  0.0000000000000000  0.0000000000000000  0.0000000000000000  0.0000000000000000
 -0.0384900000000000  0.0139310000000000  1.0000000000000000  1.0000000000000000  0.0000000000000000  0.0108868571428572  0.5381040000000000  0.0000000000000000  0.0000000000000000  0.0000000000000000  0.0000000000000000  0.0000000000000000
 -0.0377480000000000  0.0169610000000000  1.0000000000000000  1.0000000000000000  0.0000000000000000  0.0108868571428572  0.5381040000000000  0.0000000000000000  0.0000000000000000  0.0000000000000000  0.0000000000000000  0.0000000000000000
 -0.0368620000000000  0.0199530000000000  1.0000000000000000  1.0000000000000000  0.0000000000000000  0.0108868571428572  0.5381040000000000  0.0000000000000000  0.0000000000000000  0.0000000000000000  0.0000000000000000  0.0000000000000000
 -0.0358330000000000  0.0228980000000000  1.0000000000000000  1.0000000000000000  0.0000000000000000  0.0108868571428572  0.5381040000000000  0.0000000000000000  0.0000000000000000  0.0000000000000000  0.0000000000000000  0.0000000000000000
 -0.0346650000000000  0.0257900000000000  1.0000000000000000  1.0000000000000000  0.0000000000000000  0.0108868571428572  0.5381040000000000  0.0000000000000000  0.0000000000000000  0.0000000000000000  0.0000000000000000  0.0000000000000000
 -0.0333580000000000  0.0286240000000000  1.0000000000000000  1.0000000000000000  0.0000000000000000  0.0108868571428572  0.5381040000000000  0.0000000000000000  0.0000000000000000  0.0000000000000000  0.0000000000000000  0.0000000000000000
 -0.0319180000000000  0.0313910000000000  1.0000000000000000  1.0000000000000000  0.0000000000000000  0.0108868571428572  0.5381040000000000  0.0000000000000000  0.0000000000000000  0.0000000000000000  0.0000000000000000  0.0000000000000000
 -0.0303460000000000  0.0340860000000000  1.0000000000000000  1.0000000000000000  0.0000000000000000  0.0108868571428572  0.5381040000000000  0.0000000000000000  0.0000000000000000  0.0000000000000000  0.0000000000000000  0.0000000000000000
 -0.0286470000000000  0.0367020000000000  1.0000000000000000  1.0000000000000000  0.0000000000000000  0.0108868571428572  0.5381040000000000  0.0000000000000000  0.0000000000000000  0.0000000000000000  0.0000000000000000  0.0000000000000000
 -0.0268240000000000  0.0392340000000000  1.0000000000000000  1.0000000000000000  0.0000000000000000  0.0108868571428572  0.5381040000000000  0.0000000000000000  0.0000000000000000  0.0000000000000000  0.0000000000000000  0.0000000000000000
 -0.0248820000000000  0.0416750000000000  1.0000000000000000  1.0000000000000000  0.0000000000000000  0.0108868571428572  0.5381040000000000  0.0000000000000000  0.0000000000000000  0.0000000000000000  0.0000000000000000  0.0000000000000000
 -0.0228250000000000  0.0440210000000000  1.0000000000000000  1.0000000000000000  0.0000000000000000  0.0108868571428572  0.5381040000000000  0.0000000000000000  0.0000000000000000  0.0000000000000000  0.0000000000000000  0.0000000000000000
 -0.0206570000000000  0.0462650000000000  1.0000000000000000  1.0000000000000000  0.0000000000000000  0.0108868571428572  0.5381040000000000  0.0000000000000000  0.0000000000000000  0.0000000000000000  0.0000000000000000  0.0000000000000000
 -0.0183850000000000  0.0484020000000000  1.0000000000000000  1.0000000000000000  0.0000000000000000  0.0108868571428572  0.5381040000000000  0.0000000000000000  0.0000000000000000  0.0000000000000000  0.0000000000000000  0.0000000000000000
 -0.0160130000000000  0.0504280000000000  1.0000000000000000  1.0000000000000000  0.0000000000000000  0.0108868571428572  0.5381040000000000  0.0000000000000000  0.0000000000000000  0.0000000000000000  0.0000000000000000  0.0000000000000000
 -0.0135460000000000  0.0523380000000000  1.0000000000000000  1.0000000000000000  0.0000000000000000  0.0108868571428572  0.5381040000000000  0.0000000000000000  0.0000000000000000  0.0000000000000000  0.0000000000000000  0.0000000000000000
 -0.0109900000000000  0.0541270000000000  1.0000000000000000  1.0000000000000000  0.0000000000000000  0.0108868571428572  0.5381040000000000  0.0000000000000000  0.0000000000000000  0.0000000000000000  0.0000000000000000  0.0000000000000000
 -0.0083510000000000  0.0557910000000000  1.0000000000000000  1.0000000000000000  0.0000000000000000  0.0108868571428572  0.5381040000000000  0.0000000000000000  0.0000000000000000  0.0000000000000000  0.0000000000000000  0.0000000000000000
 -0.0056360000000000  0.0573270000000000  1.0000000000000000  1.0000000000000000  0.0000000000000000  0.0108868571428572  0.5381040000000000  0.0000000000000000  0.0000000000000000  0.0000000000000000  0.0000000000000000  0.0000000000000000
 -0.0028500000000000  0.0587310000000000  1.0000000000000000  1.0000000000000000  0.0000000000000000  0.0108868571428572  0.5381040000000000  0.0000000000000000  0.0000000000000000  0.0000000000000000  0.0000000000000000  0.0000000000000000
  0.0000000000000000  0.0600000000000000  1.0000000000000000  1.0000000000000000  0.0000000000000000  0.0108868571428572  0.5381040000000000  0.0000000000000000  0.0000000000000000  0.0000000000000000  0.0000000000000000  0.0000000000000000
  0.0000000000000000  0.0557870000000000  1.0000000000000000  1.0000000000000000 -0.0000000000001126  0.0108868571428408  0.5381039999999430  0.0000000000000000  0.0000000000000000  0.0000000000000000  0.0000000000000000  0.0000000000000000
  0.0000000000000000  0.0519860000000000  1.0000000000005400  1.0000000000000400  0.0000000000000637  0.0108868571428167  0.5381039999998777  0.0000000000000000  0.0000000000000000  0.0000000000000000  0.0000000000000000  0.0000000000000000
  0.0000000000000000  0.0485510000000000  4.6313288526262744  0.6191575618254975  0.3831658447633861  0.3618838454680007  0.5385698852978432  0.0000000000000000  0.0000000000000000  0.0000000000000000  0.0000000000000000  0.0000000000000000
  0.0000000000000000  0.0454450000000000  3.9622804742122728  0.6079859993348901  0.3551746850176534  0.3276758498611976  0.5373438244183133  0.0000000000000000  0.0000000000000000  0.0000000000000000  0.0000000000000000  0.0000000000000000
  0.0000000000000000  0.0426310000000000  3.5003699816393028  0.5949884726658483  0.3274845802322720  0.3066682174633850  0.5372645197346241  0.0000000000000000  0.0000000000000000  0.0000000000000000  0.0000000000000000  0.0000000000000000