 TITLE = Shock normals
 VARIABLES = X Y Z(1) Z(2) NX NY
 ZONE T="sampletext",F=FEPOINT,ET=TRIANGLE, N=          17 , E=          16
  0.56733495208442875        5.8936004880693116E-002   1.0000000000000000        1.0000000000000000      -0.99846566122844782        5.5374392526132965E-002
  0.56820667351618992        7.2767281250414081E-002   1.0000000000000000        1.0000000000000000      -0.99820361698338167        5.9912761923434921E-002
  0.56899997558082138        8.6685063971890339E-002   1.0000000000000000        1.0000000000000000      -0.99914437788265642        4.1358338282372897E-002
  0.56935943412251622       0.10060120036114978        1.0000000000000000        1.0000000000000000      -0.99965145910269693        2.6400005944114405E-002
  0.56973431042313927       0.11449216064947888        1.0000000000000000        1.0000000000000000      -0.99987326449312408        1.5920268586402817E-002
  0.56980180386314350       0.12839766149844165        1.0000000000000000        1.0000000000000000      -0.99999385878145464        3.5046254259641155E-003
  0.56983175251060059       0.14227103875890304        1.0000000000000000        1.0000000000000000      -0.99997580369772243        6.9564372414280262E-003
  0.56999468280665622       0.15613516153456566        1.0000000000000000        1.0000000000000000      -0.99991741873122308        1.2851292459823343E-002
  0.57018834816826713       0.17001400228434030        1.0000000000000000        1.0000000000000000      -0.99997483496631334        7.0943240759348712E-003
  0.57019162667666246       0.18389308496556495        1.0000000000000000        1.0000000000000000      -0.99996628923474840        8.2109922718037204E-003
  0.57041622071266818       0.19776859970260413        1.0000000000000000        1.0000000000000000      -0.99999732799224894        2.3117111330082842E-003
  0.57025564346310331       0.21165042024281530        1.0000000000000000        1.0000000000000000      -0.99999391037866225       -3.4898718589768843E-003
  0.57031927711071451       0.22552917503590394        1.0000000000000000        1.0000000000000000      -0.99968038647338198        2.5280919691131706E-002
  0.57095711305381058       0.23939156623635507        1.0000000000000000        1.0000000000000000      -0.99953698757932696        3.0427133628464758E-002
  0.57116367705626647       0.25322865721347065        1.0000000000000000        1.0000000000000000      -0.99904969315808512       -4.3585669671762077E-002
  0.56982517232211427       0.26654333217471926        1.0000000000000000        1.0000000000000000      -0.98254745358227691      -0.18601210030259693     
  0.56724410095466826       0.28017698877809438        1.0000000000000000        1.0000000000000000      -0.98254745358227691      -0.18601210030259693     
           1           2           1
           2           3           2
           3           4           3
           4           5           4
           5           6           5
           6           7           6
           7           8           7
           8           9           8
           9          10           9
          10          11          10
          11          12          11
          12          13          12
          13          14          13
          14          15          14
          15          16          15
          16          17          16
