TITLE      =  Unstructured grid data 
VARIABLES  =  x  y  rho  u  v p H  Ma  s T time  sensor
ZONE    N  =  12420    E  =  4721    F = FEPOINT    ET = TRIANGLE 

1.00000000000000000000 0.00000000000000000000 1.09362025216899994007 0.75988249727710766024 -0.07847093461902940326 1.53271246764157176301 5.19705133954825537757 0.54536689666290638634 1.35222053960768606728 17.16841626823475763786 0.00014508241346300536 0.00000000000000000000
0.00000000000000000000 0.00000000000000000000 1.18232358383181690442 0.01202732015898240990 0.50888292664572909452 1.73696953120826380612 5.27145639405830390700 0.35493367300464068181 1.37391956113190305544 17.99666102264604106153 0.00014508241346300536 0.00000000000000000000
-10.00000000000000000000 0.00000000000000000000 1.00070172793493816776 0.99822721468828845559 0.04030878513245234745 1.34537482494221749540 5.20455108470471383697 0.72819861879258696025 1.34405421510812272956 16.46928464843591299882 0.00014508241346300536 0.00000000000000000000
-10.00000000000000000000 10.00000000000000000000 0.99988488355640992022 0.99934645940264454911 0.04020633108723309368 1.34383797783175285012 5.20412937470798375728 0.72912973658367319363 1.34405458474182082362 16.46391049526277683412 0.00014508241346300536 0.00000000000000000000
-10.00000000000000000000 -10.00000000000000000000 1.00023678549334582577 0.99888986462918250009 0.04011489974515060342 1.34450016487095802553 5.20433167077324032590 0.72874317344497463456 1.34405459009094974121 16.46622805573552028591 0.00014508241346300536 0.00000000000000000000
11.00000000000000000000 0.00000000000000000000 0.99868230069978902730 0.99673052422919783400 0.03181936314708230795 1.34249799191717955615 5.20218477627638264948 0.72692864412143076702 1.34497852602032974545 16.46729934981506815461 0.00014508241346300536 0.00000000000000000000
11.00000000000000000000 10.00000000000000000000 0.99930382241876625216 1.00052841451638196979 0.03854162627186127205 1.34274656916088153125 5.20415831919020366314 0.73002736699993375780 1.34405636941658723771 16.46010462804761331768 0.00014508241346300536 0.00000000000000000000
11.00000000000000000000 -10.00000000000000000000 1.00151716628738518544 1.00116191206551752302 0.03807720214375127227 1.34690489724961381945 5.20891332326365930072 0.73015474644677613725 1.34404922662431958180 16.47459029830869781108 0.00014508241346300536 0.00000000000000000000
-3.00000000000000000000 0.00000000000000000000 1.00188245954023025241 0.99552696993034961448 0.04787279549733622352 1.34759781500847308777 5.20441311702870113010 0.72630462758679870117 1.34405430292528071945 16.47705584288744873334 0.00014508241346300536 0.00000000000000000000
4.00000000000000000000 0.00000000000000000000 1.00042857740756563345 0.98918982263860177895 0.02332751755740979788 1.34656462890989292447 5.20047753050798888808 0.72080168597726723689 1.34575709418223588010 16.48835016977539780214 0.00014508241346300536 0.00000000000000000000
0.99804300000000001347 0.00041500000000000000 1.07412692173921087146 0.74210149043014339565 -0.15345235046394847811 1.49326032446115108954 5.15286070282549246713 0.54318923264151586228 1.35100726250564617814 17.03005352945651296181 0.00014508241346300536 0.00000000000000000000
0.99552499999999999325 0.00094100000000000000 1.06798985642577681787 0.77783708951921493036 -0.16125751067275437278 1.48122072271459170878 5.16975112719134699546 0.57008053955481119424 1.35090808325129718703 16.98981853065454927787 0.00014508241346300536 0.00000000000000000000
0.99228799999999994785 0.00161100000000000002 1.05844773307193973366 0.79917757362567898305 -0.16344961492780399337 1.46271848375638424677 5.16951417161076776097 0.58645122871852284341 1.35090113160750679988 16.92884860172670968836 0.00014508241346300536 0.00000000000000000000
0.98813399999999995682 0.00245899999999999981 1.05006708110914925847 0.81874983559292890956 -0.16554843601074881176 1.44651651608449349773 5.17029248470533708826 0.60149924511981966990 1.35088859558815266304 16.87494793505783619025 0.00014508241346300536 0.00000000000000000000
0.98281499999999999417 0.00353199999999999998 1.04149404228753117430 0.83749786188777342044 -0.16760416685354548316 1.43003161906817366500 5.17044955095256320021 0.61603071612893012254 1.35090912175842192688 16.81995923386076441375 0.00014508241346300536 0.00000000000000000000
0.97602100000000002744 0.00488300000000000019 1.03257784566773991308 0.85671990369794570608 -0.16871521835974861991 1.41298079416157063015 5.17062121441726318949 0.63085613366353843201 1.35096573735394187565 16.76291506843823242434 0.00014508241346300536 0.00000000000000000000
0.96737499999999998490 0.00657199999999999972 1.02265325563132858377 0.87738372913184792257 -0.16953667634223812399 1.39399936290834780550 5.17019332627546202019 0.64687231630028851903 1.35096098772272799060 16.69822307961577578794 0.00014508241346300536 0.00000000000000000000
0.95641699999999996162 0.00866899999999999962 1.01359059204882262506 0.89725567206477485627 -0.16942896594521070219 1.37672021694077129084 5.17079923467828095340 0.66216858779306386751 1.35094631436364998045 16.63869296915505557877 0.00014508241346300536 0.00000000000000000000
0.94260699999999997267 0.01125600000000000038 1.00268117717800486766 0.91972283681893396423 -0.16952646364477394481 1.35609669857540393600 5.17096135873552409379 0.67964808813218979822 1.35102271685517361099 16.56776344830053560031 0.00014508241346300536 0.00000000000000000000
0.92532199999999997786 0.01440100000000000061 0.99086134986930796131 0.94392468096202131189 -0.16911205802591228187 1.33384367399651382335 5.17130604345197042448 0.69853426641255655927 1.35109811993220207960 16.49028394195862645688 0.00014508241346300536 0.00000000000000000000
0.90387600000000001277 0.01818300000000000125 0.97755736273361215627 0.97109053983027304735 -0.16783000542288450951 1.30879100373454826389 5.17152508604564076222 0.71981792959060064696 1.35104915328323560431 16.40076624344057520943 0.00014508241346300536 0.00000000000000000000
0.87755099999999996996 0.02264100000000000140 0.96385072462791443471 0.99792312408847438920 -0.16521567380738380604 1.28328294933298936442 5.17151730882837767922 0.74088129497596044715 1.35116608119240888541 16.30980371509060233848 0.00014508241346300536 0.00000000000000000000
0.84566300000000005355 0.02779399999999999926 0.94661789651552652458 1.03131549143650147471 -0.16205259894332224579 1.25133607889660547485 5.17159330043211173944 0.76740431881318937890 1.35123028737245309827 16.19329934803529980059 0.00014508241346300536 0.00000000000000000000
0.80764499999999994628 0.03357899999999999774 0.92784175446143002386 1.06774240563511280122 -0.15554889731509052853 1.21675188815959356425 5.17196000551116341626 0.79634021453198966523 1.35125884948619390258 16.06438873685612733766 0.00014508241346300536 0.00000000000000000000
0.76317000000000001503 0.03981599999999999723 0.90735626826134840872 1.10674861593608508947 -0.14766960412351937126 1.17930180591422351100 5.17234131200291180619 0.82773857468717293440 1.35125085661280430749 15.92147167300792531819 0.00014508241346300536 0.00000000000000000000
0.71227700000000004898 0.04619899999999999701 0.88159229477585188128 1.15404879940304416763 -0.13607546565940842331 1.13269468439048992536 5.17207145322712147362 0.86643470676582357015 1.35125701747860138546 15.73914604971837150060 0.00014508241346300536 0.00000000000000000000
0.65549400000000002109 0.05225199999999999984 0.84493364283679239790 1.21905915146321053300 -0.11331836856561068594 1.06722692150731224281 5.17028683540485189951 0.92068682835745918602 1.35115486135559104142 15.47284795593098039035 0.00014508241346300536 0.00000000000000000000
0.59391300000000002424 0.05746199999999999919 0.85454418591621317258 1.20758246124575108205 -0.08410358969484685310 1.08422187073007125768 5.17336695967565063370 0.90826317663663613811 1.35110726854682883236 15.54245893347594709155 0.00014508241346300536 0.00000000000000000000
0.52914499999999997648 0.06105399999999999716 0.64586163204048852027 1.57414596133801421018 -0.06300713407078022132 0.72987718249668398496 5.19624283355357619030 1.25248762649603273545 1.34602927941176586657 13.84351545599147570442 0.00014508241346300536 0.00000000000000000000
0.46322999999999997511 0.06265199999999999936 0.66109044055572696585 1.55124672176945010982 -0.01528666819980450953 0.75422064543410816118 5.19635771426520332028 1.22749342780721870660 1.34627316168418498243 13.97570187038426148263 0.00014508241346300536 0.00000000000000000000
0.39836199999999999388 0.06248900000000000288 0.67450422376299701277 1.52891820158502178550 0.02267249551979036784 0.77642616589751778378 5.19792504709121683248 1.20450951318694632342 1.34747780324134813768 14.10105407373488795031 0.00014508241346300536 0.00000000000000000000
0.33658300000000002106 0.06084099999999999925 0.68282657302596350135 1.51481176316222310163 0.05773005873139867850 0.78997553246701746055 5.19821276331695258932 1.19112734245571383340 1.34765603627751562321 14.17226665599173252019 0.00014508241346300536 0.00000000000000000000
0.27955000000000002069 0.05799100000000000088 0.69067272974318472123 1.49875752514352589273 0.09220696698825787962 0.80308319136680594852 5.19703073089046618804 1.17691092341452074876 1.34827755188122355712 14.24374913122947283739 0.00014508241346300536 0.00000000000000000000
0.22839499999999998692 0.05426500000000000073 0.69556721247557296017 1.48840547626074037879 0.12478502688476349192 0.81108529141343754798 5.19673240887315390779 1.16899991474518483159 1.34831629383182205473 14.28444964283525742132 0.00014508241346300536 0.00000000000000000000
0.18369099999999999318 0.04996600000000000347 0.70211773368815033614 1.47452398295104969428 0.15997470017586795654 0.82190350131196443506 5.19702878418306291053 1.15857301378276500436 1.34848745723385254891 14.33992820290089653668 0.00014508241346300536 0.00000000000000000000
0.14551800000000000845 0.04532599999999999824 0.70365475371568275698 1.46433036401726845988 0.19627482083926345302 0.82557233097928928167 5.19781532216397312851 1.15277336050075773777 1.35036649181167578426 14.37247599208665249648 0.00014508241346300536 0.00000000000000000000
0.11356499999999999928 0.04059600000000000014 0.70315455644383950684 1.45842693962734615276 0.23588519646904840266 0.82490654258422047018 5.19735433815519165535 1.15279252453951808199 1.35062142495277193177 14.37110099629112092146 0.00014508241346300536 0.00000000000000000000
0.08727699999999999347 0.03592499999999999860 0.70441883396430093889 1.44557369912720701244 0.27968441687021422526 0.82744957822378772949 5.19524819556159034306 1.14815622640362313689 1.35138220594064040192 14.38953197233095870899 0.00014508241346300536 0.00000000000000000000
0.06596499999999999586 0.03146000000000000185 0.70503980257302034662 1.43094937316485926182 0.32409991960209061368 0.82873739327289441814 5.19039527862648064627 1.14372532291512429836 1.35181681822618249278 14.39923395891045920791 0.00014508241346300536 0.00000000000000000000
0.04889899999999999802 0.02728999999999999829 0.70355751425961143841 1.41485830766778053480 0.37398925636799301708 0.82683897556139029916 5.18413646159093399746 1.14091639667539745950 1.35270000634928777572 14.39651662492163275431 0.00014508241346300536 0.00000000000000000000
0.03541300000000000003 0.02335800000000000029 0.70055294911284038406 1.39779156108471758202 0.44195577163388677366 0.82227959265946148903 5.18272589737466660154 1.14361458184570019547 1.35332517302668642323 14.37853487425106457920 0.00014508241346300536 0.00000000000000000000
0.02487400000000000028 0.01970399999999999929 0.71168417914589465756 1.35339762051370415818 0.51011614810447269974 0.84159450675999047942 5.18483933089357407198 1.12408467222086905224 1.35487945092753259146 14.48610635153158554544 0.00014508241346300536 0.00000000000000000000
0.01675799999999999859 0.01628900000000000139 0.72939948651924146894 1.27687869636614181879 0.59683117873611002402 0.87228574626449761897 5.17894845693516359120 1.08929986703037307016 1.35677284023121136336 14.64972294226891769142 0.00014508241346300536 0.00000000000000000000
0.01063700000000000062 0.01305699999999999916 0.73913566971487421053 1.18442206449733622442 0.71647284167512237385 0.89218967988209862963 5.18284510080379323682 1.06485048225261125232 1.36220782157636643994 14.78662717329250497755 0.00014508241346300536 0.00000000000000000000
0.00617899999999999960 0.00997600000000000049 0.80101159742295457988 0.98845713751360708699 0.81652923973291302584 1.00084866843135222858 5.19506680452989222374 0.96937401231753173025 1.36544461816070361593 15.30614066978391818452 0.00014508241346300536 0.00000000000000000000
0.00312599999999999987 0.00704899999999999971 0.89052577983067471301 0.71521542656227454771 0.85985560786113057752 1.16279143994002498452 5.19551787657547148314 0.82721227493576188206 1.36771853074321803057 15.99526421567909295618 0.00014508241346300536 0.00000000000000000000
0.00127500000000000009 0.00433599999999999958 1.01602043565403943326 0.41092782261175136993 0.78959139386100474223 1.39674079935099348937 5.20766842879290781099 0.64162100658937659681 1.36600534530722605986 16.84028607262752785800 0.00014508241346300536 0.00000000000000000000
0.00037399999999999998 0.00196500000000000017 1.09338676208895235753 0.19631015178698507651 0.67270565007226479359 1.55317851377220494946 5.21735768603146254918 0.49691734194137515690 1.37068619243829137311 17.40137840827600967941 0.00014508241346300536 0.00000000000000000000
0.00037399999999999998 -0.00196500000000000017 1.24747542577673531383 -0.07737752343777595798 0.28207222083196209494 1.87182555585554122324 5.29449424783872490963 0.20180616382923113883 1.37347441418974303140 18.38101383436327296295 0.00014508241346300536 0.00000000000000000000
0.00127699999999999992 -0.00433599999999999958 1.28707733021831094433 -0.00047851421906050013 0.05358412596543384032 1.95585597983217085449 5.32007182622349805712 0.03673866186864289951 1.37369518131892887070 18.61522628860240757831 0.00014508241346300536 0.00000000000000000000
0.00312200000000000021 -0.00705300000000000024 1.27631008537817991488 0.11773652664020493874 -0.13560436674559014913 1.91537420540843017491 5.26861816187400400224 0.12389536146392488014 1.36117809955176150005 18.38372530708391394683 0.00014508241346300536 0.00000000000000000000
0.00615800000000000028 -0.00999700000000000068 1.23862910339350351663 0.27894628982216201907 -0.22512107349714763349 1.83058065961847482583 5.23692552200390792905 0.24919983374352405736 1.35666017818127149219 18.10438089892207713660 0.00014508241346300536 0.00000000000000000000
0.01058500000000000066 -0.01312100000000000072 1.20705651596301266615 0.42302859931171782337 -0.25822920380981539967 1.76328441043082317918 5.23566488306696165012 0.34656458643743570658 1.35488901324798094450 17.89496493504656626783 0.00014508241346300536 0.00000000000000000000
0.01666099999999999873 -0.01643199999999999869 1.16760137764012861261 0.53811424895416082315 -0.25816723725204249185 1.68180045975749470344 5.21947097004825000255 0.42029433073467747928 1.35382343834446827735 17.64476817736263569714 0.00014508241346300536 0.00000000000000000000
0.02472600000000000145 -0.01995900000000000105 1.13908126358714634208 0.62594254626664658225 -0.24708486668977444611 1.62253402142418967635 5.21190944758900620570 0.47653632932935546807 1.35212617531365975054 17.44918681205723487437 0.00014508241346300536 0.00000000000000000000
0.03521699999999999831 -0.02373099999999999862 1.11112451638223119765 0.70916047526953307489 -0.23233288881051325503 1.56622867424187051100 5.21200437716754549911 0.53121870729061826388 1.35141068519927842750 17.26746280599820337898 0.00014508241346300536 0.00000000000000000000
0.04866899999999999699 -0.02775599999999999942 1.08293192840785512665 0.77951032107835160900 -0.20966382679959044699 1.50992961376407497376 5.20583995773039376331 0.57775959732670345570 1.35056372639340760422 17.08014814541851578156 0.00014508241346300536 0.00000000000000000000
0.06572100000000000164 -0.03193700000000000011 1.06107578076419373225 0.83620780904877600737 -0.18752289643971653543 1.46637604617047445643 5.20410295973418168813 0.61610580857182739578 1.34958547386331262352 16.92914577001387144151 0.00014508241346300536 0.00000000000000000000
0.08703099999999999725 -0.03634899999999999937 1.04185701420721832378 0.88578140660025017628 -0.16705927225053024410 1.42844316180220087809 5.20495089154013168553 0.65061627362966889532 1.34875043096264590758 16.79542249412417831422 0.00014508241346300536 0.00000000000000000000
0.11332000000000000406 -0.04089999999999999886 1.02166643388812250492 0.93036890683187367657 -0.14551218256774450799 1.38972836381782305359 5.20427764929584668607 0.68238371740615078043 1.34864344582701844999 16.66314160090392704205 0.00014508241346300536 0.00000000000000000000
0.14527499999999998748 -0.04545199999999999935 1.00382483748661432976 0.96814959700064751047 -0.12414678174272233968 1.35579141269706426876 5.20355224672277039133 0.70982703293935567324 1.34856463608704979507 16.54516224874791774369 0.00014508241346300536 0.00000000000000000000
0.18344299999999999495 -0.04986700000000000160 0.98725107809376311252 1.00643404081546661288 -0.10278081467329416854 1.32345441853609435690 5.20364391085063537901 0.73847121386667913256 1.34744275903299448593 16.42167528281737887141 0.00014508241346300536 0.00000000000000000000
0.22813400000000000345 -0.05387399999999999828 0.96908767136972773226 1.04221075716311029069 -0.08071181911960864652 1.28934487160267008399 5.20301393353219410187 0.76592624091279537524 1.34728911547532126392 16.29829286220151018938 0.00014508241346300536 0.00000000000000000000
0.27927000000000001823 -0.05717599999999999766 0.95064349564968320117 1.07887810196189448675 -0.05497093435832558356 1.25491174679930228564 5.20372937201616192482 0.79464584008744798549 1.34706462414696059859 16.17080321765159567349 0.00014508241346300536 0.00000000000000000000
0.33628400000000002734 -0.05908499999999999863 0.92535467225954048942 1.12524896506714444655 -0.01376424823042877651 1.20826250736137486008 5.20323913333048260199 0.83232042862842148256 1.34688274280188502452 15.99518126280714369614 0.00014508241346300536 0.00000000000000000000
0.39801399999999997892 -0.05836299999999999821 0.91496274115548592576 1.14260887183167914039 0.04228815251913184414 1.18910546259142835268 5.20234772374020071339 0.84766124176585766481 1.34665268490702327853 15.92036621988480327161 0.00014508241346300536 0.00000000000000000000
0.46267700000000000493 -0.05422699999999999743 0.92888190672720705177 1.11164569928207734861 0.09209578780631255679 1.21447719799382669592 5.19823364592039727228 0.82446694043792390083 1.34661875971492328574 16.01640161970938436298 0.00014508241346300536 0.00000000000000000000
0.52817300000000000360 -0.04726099999999999746 0.96323699784847616190 1.04608627730629955010 0.12808246201368450601 1.27778417178033332213 5.19828355615100434761 0.77334362502482967283 1.34657667194909658193 16.25026461740145222734 0.00014508241346300536 0.00000000000000000000
0.59241500000000002490 -0.03875499999999999778 0.99692848765345620787 0.98159150797976713054 0.13672173701461887152 1.34087683487530640036 5.19863551386207412008 0.72223205678743562785 1.34666408890229871709 16.47634853517425668201 0.00014508241346300536 0.00000000000000000000
0.65353099999999997305 -0.02998599999999999877 1.02307760326789676242 0.93067400950686007821 0.13454688065618655712 1.39035347033718359455 5.19859772372430573029 0.68173706312288440134 1.34664529127271404008 16.64764232666977505914 0.00014508241346300536 0.00000000000000000000
0.70999500000000004274 -0.02182999999999999871 1.04498221724835427260 0.88763544091686208404 0.12616285745372893268 1.43231495048068824261 5.19921561390096709232 0.64721546055933598662 1.34674714982897669735 16.79058059915140788121 0.00014508241346300536 0.00000000000000000000
0.76076600000000005330 -0.01487899999999999986 1.06189859025620081390 0.85509288761062651751 0.11161702965117681341 1.46487324533064522392 5.20001882981839713693 0.62052530474313793984 1.34674007958718111588 16.89869204080113718192 0.00014508241346300536 0.00000000000000000000
0.80530000000000001581 -0.00939000000000000078 1.07385025522785904073 0.83110686756688667565 0.09634203856738593474 1.48797107013969065470 5.19975412611776643956 0.60071150976405052191 1.34670748195266698488 16.97410371741590040529 0.00014508241346300536 0.00000000000000000000
0.84350400000000003153 -0.00529400000000000009 1.08370166120360122974 0.81424256626797109071 0.07999126991771557393 1.50703155920150955183 5.20191114224064499183 0.58636649332098467191 1.34663132396608209440 17.03525726786728355933 0.00014508241346300536 0.00000000000000000000
0.87565400000000004344 -0.00242900000000000017 1.09083524972169021439 0.79976551085180136447 0.06379870448391546101 1.52089025812242084612 5.20170079130664930744 0.57425758775797408617 1.34658895885205676102 17.07948626225000410273 0.00014508241346300536 0.00000000000000000000
0.90226899999999998769 -0.00056400000000000005 1.09637462152181131003 0.78956662456076687207 0.04754760582325963381 1.53167394663584577330 5.20246134020498196548 0.56559704845574299004 1.34655396007327388119 17.11368128919777475971 0.00014508241346300536 0.00000000000000000000
0.92400599999999999401 0.00049500000000000000 1.09998736547962483456 0.78309060204167346697 0.03145367151351315810 1.53871484111369705161 5.20307720504149884277 0.56003196432472313049 1.34652793297308637221 17.13588482484432873321 0.00014508241346300536 0.00000000000000000000
0.94155699999999997729 0.00104199999999999996 1.10173482455849591766 0.77959779158970798907 0.01709815322362113338 1.54213466312500213640 5.20309826029119104618 0.55704258435494069523 1.34652490677375280548 17.14673004990255478219 0.00014508241346300536 0.00000000000000000000
0.95559799999999994746 0.00120199999999999994 1.10305034278843483442 0.77801534061993216085 0.00273441331404581690 1.54471841176080726399 5.20407897004462594026 0.55564809562727313086 1.34652944749057779106 17.15497453745797784563 0.00014508241346300536 0.00000000000000000000
0.96674999999999999822 0.00115799999999999996 1.10181905722253614677 0.78033152142201234192 -0.00849499283783178120 1.54229301153656228607 5.20368892936342053446 0.55745852400888429301 1.34651904096394270383 17.14717971837278298608 0.00014508241346300536 0.00000000000000000000
0.97555599999999997873 0.00100200000000000007 1.10131532285364208690 0.78173203174879402066 -0.01832646448683267551 1.54130787910564603926 5.20402471009544864700 0.55863011132658568769 1.34652073081018519574 17.14406503499937173274 0.00014508241346300536 0.00000000000000000000
0.98247700000000004472 0.00080300000000000000 1.10002727298885227825 0.78433970987954326759 -0.02608662888070174823 1.53877282780657620442 5.20390861860418851847 0.56078285778031589093 1.34651028468322819798 17.13590890288916668283 0.00014508241346300536 0.00000000000000000000
0.98789800000000005387 0.00059999999999999995 1.09903777140143921187 0.78651244667244168962 -0.03216768532777558587 1.53682916825847493136 5.20401049492672473917 0.56259778921542957786 1.34650487122926465489 17.12967270193100333131 0.00014508241346300536 0.00000000000000000000
0.99213300000000004264 0.00041399999999999998 1.09905628242484176837 0.78608787431250692901 -0.03641251924000347279 1.53686292517020306470 5.20384727880383568532 0.56242536932429054719 1.34650269682080359068 17.12976044484094373388 0.00014508241346300536 0.00000000000000000000
0.99543400000000004102 0.00025099999999999998 1.09913514712010385033 0.78635030285120455229 -0.04105303237097650965 1.53701653778326696731 5.20437132920156564353 0.56276796077218760317 1.34650201176434292094 17.13024338924867251421 0.00014508241346300536 0.00000000000000000000
0.99800299999999997347 0.00011400000000000001 1.09885656237554574233 0.78076665981438764241 -0.04096073640046347941 1.53649341615879309053 5.19956705232373028736 0.55880363542898525697 1.34652150885743071562 17.12875455487573361779 0.00014508241346300536 0.00000000000000000000
-10.00000000000000000000 1.11111099999999995980 1.00046108887583229397 0.99855246388149598857 0.04030716531296434785 1.34492212880452854940 5.20442384626117071633 0.72847043217498419487 1.34405442883801229392 16.46770300319019852964 0.00014508241346300536 0.00000000000000000000
-10.00000000000000000000 2.22222199999999991959 1.00022083096692981918 0.99888511611461883177 0.04030407773939557320 1.34447010382197307266 5.20430438752647717138 0.72874759635376074041 1.34405455305711729608 16.46612254205662750906 0.00014508241346300536 0.00000000000000000000
-10.00000000000000000000 3.33333300000000010144 1.00002798234129408605 0.99914402609322217064 0.04033344954663860282 1.34410724617320020968 5.20420151186778667807 0.72896514463293127228 1.34405459216648481835 16.46485304048457365411 0.00014508241346300536 0.00000000000000000000
-10.00000000000000000000 4.44444399999999983919 0.99983545372281379393 0.99941223126861178372 0.04031551294477861425 1.34374495927187220801 5.20410643791491533960 0.72918806366873978320 1.34405457192868382776 16.46358477266392128513 0.00014508241346300536 0.00000000000000000000
-10.00000000000000000000 5.55555600000000016081 0.99971082119602128202 0.99958550673862911484 0.04030321957626399609 1.34351041744043575576 5.20404442335090067218 0.72933211771495243259 1.34405452688060345068 16.46276329584541997519 0.00014508241346300536 0.00000000000000000000
-10.00000000000000000000 6.66666700000000034265 0.99964078974361114671 0.99967928033473651972 0.04030607202233559005 1.34337862373773897495 5.20400635530177346766 0.72941073978230341890 1.34405449259739695478 16.46230156835442670626 0.00014508241346300536 0.00000000000000000000
-10.00000000000000000000 7.77777799999999963632 0.99964319063553230826 0.99967621611465284914 0.04030718182543429479 1.34338314147859816394 5.20400785787720288056 0.72940818965728526635 1.34405449328421910948 16.46231739211917854959 0.00014508241346300536 0.00000000000000000000
-10.00000000000000000000 8.88888900000000070634 0.99970831994223285921 0.99958696295523308262 0.04029648112211790811 1.34350571169198929056 5.20404090092794913147 0.72933334548390482688 1.34405452713551309962 16.46274682317125837017 0.00014508241346300536 0.00000000000000000000
-10.00000000000000000000 -1.11111099999999995980 1.00091160855054339685 0.99793823829931393998 0.04031033343405035496 1.34576962354309892511 5.20465656553389433014 0.72795773805671404322 1.34405395933986060442 16.47066309109600368288 0.00014508241346300536 0.00000000000000000000
-10.00000000000000000000 -2.22222199999999991959 1.00109556763648099853 0.99768573009733407808 0.04030571483206926015 1.34611562942039042490 5.20474937256221625859 0.72774703526877548843 1.34405367542437703676 16.47187041226380088688 0.00014508241346300536 0.00000000000000000000
-10.00000000000000000000 -3.33333300000000010144 1.00122504757629315897 0.99750530027763517626 0.04030685759161372478 1.34635914941566259273 5.20481208056260769013 0.72759691402132409266 1.34405344359357314943 16.47271971498008014123 0.00014508241346300536 0.00000000000000000000
-10.00000000000000000000 -4.44444399999999983919 1.00126666861738011782 0.99745092820182201798 0.04030959024326596224 1.34643744472481974306 5.20483600140962732183 0.72755136689182797749 1.34405338273134766780 16.47299287477024876125 0.00014508241346300536 0.00000000000000000000
-10.00000000000000000000 -5.55555600000000016081 1.00125785579125037295 0.99745975576218159908 0.04029782021639898015 1.34642085844237757719 5.20482777914162308974 0.72755872839160662391 1.34405338768206927824 16.47293493930683183635 0.00014508241346300536 0.00000000000000000000
-10.00000000000000000000 -6.66666700000000034265 1.00114583226227571444 0.99762685567408615483 0.04028164808754226139 1.34621018129031466692 5.20478393208842593509 0.72769616448011953391 1.34405360332808920809 16.47220034222357298859 0.00014508241346300536 0.00000000000000000000
-10.00000000000000000000 -7.77777799999999963632 1.00099175669659046228 0.99782535673245476016 0.04031227018634193915 1.34592038057684937336 5.20469433221207999907 0.72786396061131464208 1.34405384633033309072 16.47118924982708421112 0.00014508241346300536 0.00000000000000000000
-10.00000000000000000000 -8.88888900000000070634 1.00069514424267747010 0.99822395447375611433 0.04029433837572719140 1.34536245304973189896 5.20453493461331984093 0.72819677234911028840 1.34405423503158294452 16.46924155141348933284 0.00014508241346300536 0.00000000000000000000
11.00000000000000000000 8.88888900000000070634 0.99996992366836945365 0.99951794806819360684 0.03651677529229517549 1.34399941351701834868 5.20432423226121532167 0.72913870905824462731 1.34405600716047035625 16.46448800698490444461 0.00014508241346300536 0.00000000000000000000
11.00000000000000000000 7.77777799999999963632 1.00002302380089247436 0.99943109828188347876 0.03498763437450327918 1.34409949423135577362 5.20428324771249783964 0.72902779878440027161 1.34405617063753757279 16.46483972114264560105 0.00014508241346300536 0.00000000000000000000
11.00000000000000000000 6.66666700000000034265 1.00007971132583217688 0.99925834841481941950 0.03388070677531466318 1.34420637637879303306 5.20417990214727499421 0.72886583056771125921 1.34405638286485284993 16.46521564647092716882 0.00014508241346300536 0.00000000000000000000
11.00000000000000000000 5.55555600000000016081 1.00011827440406020351 0.99930148096468429664 0.03312940462219269439 1.34428030844318913140 5.20427517018169893959 0.72887291144291699307 1.34405774849789261260 16.46548633284549367772 0.00014508241346300536 0.00000000000000000000
11.00000000000000000000 4.44444399999999983919 1.00021319482617077057 0.99955080142429386658 0.03252593533998441450 1.34446314002777334018 5.20469786043149973409 0.72902514247496996713 1.34406195704579145556 16.46616296458929440405 0.00014508241346300536 0.00000000000000000000