TITLE      =  Unstructured grid data 
VARIABLES  =  x  y  rho  u  v p H  Ma  s T time  sensor
ZONE    N  =  0    E  =  0    F = FEPOINT    ET = TRIANGLE 

  0.0000000000000000  0.0000000000000000  1.0000000000000000  1.0000000000000000  0.0000000000000000  0.1785714285714286  1.1250000000000000  0.0000000000000000  0.0000000000000000  0.0000000000000000  0.0000000000000000  0.0000000000000000
  0.0000000000000000  1.0000000000000000  1.0000000000000000  1.0000000000000000  0.0000000000000000  0.1785714285714286  1.1250000000000000  0.0000000000000000  0.0000000000000000  0.0000000000000000  0.0000000000000000  0.0000000000000000
  1.5000000000000000  1.0000000000000000  1.0000000000000000  1.0000000000000000  0.0000000000000000  0.1785714285714286  1.1250000000000000  0.0000000000000000  0.0000000000000000  0.0000000000000000  0.0000000000000000  0.0000000000000000
  0.5000000000000000  0.0000000000000000  1.0000000000000000  1.0000000000000000  0.0000000000000000  0.1785714285714286  1.1250000000000000  0.0000000000000000  0.0000000000000000  0.0000000000000000  0.0000000000000000  0.0000000000000000
  0.5000000000000000  1.0000000000000000  1.0000000000000000  1.0000000000000000  0.0000000000000000  0.1785714285714286  1.1250000000000000  0.0000000000000000  0.0000000000000000  0.0000000000000000  0.0000000000000000  0.0000000000000000
  0.0172410000000000  1.0000000000000000  1.0000000000000000  1.0000000000000000  0.0000000000000000  0.1785714285714286  1.1250000000000000  0.0000000000000000  0.0000000000000000  0.0000000000000000  0.0000000000000000  0.0000000000000000
  0.0344830000000000  1.0000000000000000  1.0000000000000000  1.0000000000000000  0.0000000000000000  0.1785714285714286  1.1250000000000000  0.0000000000000000  0.0000000000000000  0.0000000000000000  0.0000000000000000  0.0000000000000000
  0.0517240000000000  1.0000000000000000  1.0000000000000000  1.0000000000000000  0.0000000000000000  0.1785714285714286  1.1250000000000000  0.0000000000000000  0.0000000000000000  0.0000000000000000  0.0000000000000000  0.0000000000000000
  0.0689660000000000  1.0000000000000000  1.0000000000000000  1.0000000000000000  0.0000000000000000  0.1785714285714286  1.1250000000000000  0.0000000000000000  0.0000000000000000  0.0000000000000000  0.0000000000000000  0.0000000000000000
  0.0862070000000000  1.0000000000000000  1.0000000000000000  1.0000000000000000  0.0000000000000000  0.1785714285714286  1.1250000000000000  0.0000000000000000  0.0000000000000000  0.0000000000000000  0.0000000000000000  0.0000000000000000
  0.1034480000000000  1.0000000000000000  1.0000000000000000  1.0000000000000000  0.0000000000000000  0.1785714285714286  1.1250000000000000  0.0000000000000000  0.0000000000000000  0.0000000000000000  0.0000000000000000  0.0000000000000000
  0.1206900000000000  1.0000000000000000  1.0000000000000000  1.0000000000000000  0.0000000000000000  0.1785714285714286  1.1250000000000000  0.0000000000000000  0.0000000000000000  0.0000000000000000  0.0000000000000000  0.0000000000000000
  0.1379310000000000  1.0000000000000000  1.0000000000000000  1.0000000000000000  0.0000000000000000  0.1785714285714286  1.1250000000000000  0.0000000000000000  0.0000000000000000  0.0000000000000000  0.0000000000000000  0.0000000000000000
  0.1551720000000000  1.0000000000000000  1.0000000000000000  1.0000000000000000  0.0000000000000000  0.1785714285714286  1.1250000000000000  0.0000000000000000  0.0000000000000000  0.0000000000000000  0.0000000000000000  0.0000000000000000
  0.1724140000000000  1.0000000000000000  1.0000000000000000  1.0000000000000000  0.0000000000000000  0.1785714285714286  1.1250000000000000  0.0000000000000000  0.0000000000000000  0.0000000000000000  0.0000000000000000  0.0000000000000000
  0.1896550000000000  1.0000000000000000  1.0000000000000000  1.0000000000000000  0.0000000000000000  0.1785714285714286  1.1250000000000000  0.0000000000000000  0.0000000000000000  0.0000000000000000  0.0000000000000000  0.0000000000000000
  0.2068970000000000  1.0000000000000000  1.0000000000000000  1.0000000000000000  0.0000000000000000  0.1785714285714286  1.1250000000000000  0.0000000000000000  0.0000000000000000  0.0000000000000000  0.0000000000000000  0.0000000000000000
  0.2241380000000000  1.0000000000000000  1.0000000000000000  1.0000000000000000  0.0000000000000000  0.1785714285714286  1.1250000000000000  0.0000000000000000  0.0000000000000000  0.0000000000000000  0.0000000000000000  0.0000000000000000
  0.2413790000000000  1.0000000000000000  1.0000000000000000  1.0000000000000000  0.0000000000000000  0.1785714285714286  1.1250000000000000  0.0000000000000000  0.0000000000000000  0.0000000000000000  0.0000000000000000  0.0000000000000000
  0.2586210000000000  1.0000000000000000  1.0000000000000000  1.0000000000000000  0.0000000000000000  0.1785714285714286  1.1250000000000000  0.0000000000000000  0.0000000000000000  0.0000000000000000  0.0000000000000000  0.0000000000000000
  0.2758620000000000  1.0000000000000000  1.0000000000000000  1.0000000000000000  0.0000000000000000  0.1785714285714286  1.1250000000000000  0.0000000000000000  0.0000000000000000  0.0000000000000000  0.0000000000000000  0.0000000000000000
  0.2931030000000000  1.0000000000000000  1.0000000000000000  1.0000000000000000  0.0000000000000000  0.1785714285714286  1.1250000000000000  0.0000000000000000  0.0000000000000000  0.0000000000000000  0.0000000000000000  0.0000000000000000
  0.3103450000000000  1.0000000000000000  1.0000000000000000  1.0000000000000000  0.0000000000000000  0.1785714285714286  1.1250000000000000  0.0000000000000000  0.0000000000000000  0.0000000000000000  0.0000000000000000  0.0000000000000000
  0.3275860000000000  1.0000000000000000  1.0000000000000000  1.0000000000000000  0.0000000000000000  0.1785714285714286  1.1250000000000000  0.0000000000000000  0.0000000000000000  0.0000000000000000  0.0000000000000000  0.0000000000000000
  0.3448280000000000  1.0000000000000000  1.0000000000000000  1.0000000000000000  0.0000000000000000  0.1785714285714286  1.1250000000000000  0.0000000000000000  0.0000000000000000  0.0000000000000000  0.0000000000000000  0.0000000000000000
  0.3620690000000000  1.0000000000000000  1.0000000000000000  1.0000000000000000  0.0000000000000000  0.1785714285714286  1.1250000000000000  0.0000000000000000  0.0000000000000000  0.0000000000000000  0.0000000000000000  0.0000000000000000
  0.3793100000000000  1.0000000000000000  1.0000000000000000  1.0000000000000000  0.0000000000000000  0.1785714285714286  1.1250000000000000  0.0000000000000000  0.0000000000000000  0.0000000000000000  0.0000000000000000  0.0000000000000000
  0.3965520000000000  1.0000000000000000  1.0000000000000000  1.0000000000000000  0.0000000000000000  0.1785714285714286  1.1250000000000000  0.0000000000000000  0.0000000000000000  0.0000000000000000  0.0000000000000000  0.0000000000000000
  0.4137930000000000  1.0000000000000000  1.0000000000000000  1.0000000000000000  0.0000000000000000  0.1785714285714286  1.1250000000000000  0.0000000000000000  0.0000000000000000  0.0000000000000000  0.0000000000000000  0.0000000000000000
  0.4310340000000000  1.0000000000000000  1.0000000000000000  1.0000000000000000  0.0000000000000000  0.1785714285714286  1.1250000000000000  0.0000000000000000  0.0000000000000000  0.0000000000000000  0.0000000000000000  0.0000000000000000
  0.4482760000000000  1.0000000000000000  1.0000000000000000  1.0000000000000000  0.0000000000000000  0.1785714285714286  1.1250000000000000  0.0000000000000000  0.0000000000000000  0.0000000000000000  0.0000000000000000  0.0000000000000000
  0.4655170000000000  1.0000000000000000  1.0000000000000000  1.0000000000000000  0.0000000000000000  0.1785714285714286  1.1250000000000000  0.0000000000000000  0.0000000000000000  0.0000000000000000  0.0000000000000000  0.0000000000000000
  0.4827590000000000  1.0000000000000000  1.0000000000000000  1.0000000000000000  0.0000000000000000  0.1785714285714286  1.1250000000000000  0.0000000000000000  0.0000000000000000  0.0000000000000000  0.0000000000000000  0.0000000000000000
  0.5000000000000000  0.9795920000000000  1.0000000000000000  1.0000000000000000  0.0000000000000000  0.1785714285714286  1.1250000000000000  0.0000000000000000  0.0000000000000000  0.0000000000000000  0.0000000000000000  0.0000000000000000
  0.5000000000000000  0.9591840000000000  1.0000000000000000  1.0000000000000000  0.0000000000000000  0.1785714285714286  1.1250000000000000  0.0000000000000000  0.0000000000000000  0.0000000000000000  0.0000000000000000  0.0000000000000000
  0.5000000000000000  0.9387760000000001  1.0000000000000000  1.0000000000000000  0.0000000000000000  0.1785714285714286  1.1250000000000000  0.0000000000000000  0.0000000000000000  0.0000000000000000  0.0000000000000000  0.0000000000000000
  0.5000000000000000  0.9183670000000000  1.0000000000000000  1.0000000000000000  0.0000000000000000  0.1785714285714286  1.1250000000000000  0.0000000000000000  0.0000000000000000  0.0000000000000000  0.0000000000000000  0.0000000000000000
  0.5000000000000000  0.8979590000000000  1.0000000000000000  1.0000000000000000  0.0000000000000000  0.1785714285714286  1.1250000000000000  0.0000000000000000  0.0000000000000000  0.0000000000000000  0.0000000000000000  0.0000000000000000
  0.5000000000000000  0.8775510000000000  1.0000000000000000  1.0000000000000000  0.0000000000000000  0.1785714285714286  1.1250000000000000  0.0000000000000000  0.0000000000000000  0.0000000000000000  0.0000000000000000  0.0000000000000000
  0.5000000000000000  0.8571430000000000  1.0000000000000000  1.0000000000000000  0.0000000000000000  0.1785714285714286  1.1250000000000000  0.0000000000000000  0.0000000000000000  0.0000000000000000  0.0000000000000000  0.0000000000000000
  0.5000000000000000  0.8367350000000000  1.0000000000000000  1.0000000000000000  0.0000000000000000  0.1785714285714286  1.1250000000000000  0.0000000000000000  0.0000000000000000  0.0000000000000000  0.0000000000000000  0.0000000000000000
  0.5000000000000000  0.8163270000000000  1.0000000000000000  1.0000000000000000  0.0000000000000000  0.1785714285714286  1.1250000000000000  0.0000000000000000  0.0000000000000000  0.0000000000000000  0.0000000000000000  0.0000000000000000
  0.5000000000000000  0.7959180000000000  1.0000000000000000  1.0000000000000000  0.0000000000000000  0.1785714285714286  1.1250000000000000  0.0000000000000000  0.0000000000000000  0.0000000000000000  0.0000000000000000  0.0000000000000000
  0.5000000000000000  0.7755100000000000  1.0000000000000000  1.0000000000000000  0.0000000000000000  0.1785714285714286  1.1250000000000000  0.0000000000000000  0.0000000000000000  0.0000000000000000  0.0000000000000000  0.0000000000000000
  0.5000000000000000  0.7551020000000001  1.0000000000000000  1.0000000000000000  0.0000000000000000  0.1785714285714286  1.1250000000000000  0.0000000000000000  0.0000000000000000  0.0000000000000000  0.0000000000000000  0.0000000000000000
  0.5000000000000000  0.7346940000000000  1.0000000000000000  1.0000000000000000  0.0000000000000000  0.1785714285714286  1.1250000000000000  0.0000000000000000  0.0000000000000000  0.0000000000000000  0.0000000000000000  0.0000000000000000
  0.5000000000000000  0.7142860000000000  1.0000000000000000  1.0000000000000000  0.0000000000000000  0.1785714285714286  1.1250000000000000  0.0000000000000000  0.0000000000000000  0.0000000000000000  0.0000000000000000  0.0000000000000000
  0.5000000000000000  0.6938780000000000  1.0000000000000000  1.0000000000000000  0.0000000000000000  0.1785714285714286  1.1250000000000000  0.0000000000000000  0.0000000000000000  0.0000000000000000  0.0000000000000000  0.0000000000000000
  0.5000000000000000  0.6734690000000000  1.0000000000000000  1.0000000000000000  0.0000000000000000  0.1785714285714286  1.1250000000000000  0.0000000000000000  0.0000000000000000  0.0000000000000000  0.0000000000000000  0.0000000000000000
  0.5000000000000000  0.6530610000000000  1.0000000000000000  1.0000000000000000  0.0000000000000000  0.1785714285714286  1.1250000000000000  0.0000000000000000  0.0000000000000000  0.0000000000000000  0.0000000000000000  0.0000000000000000
  0.5000000000000000  0.6326530000000000  1.0000000000000000  1.0000000000000000  0.0000000000000000  0.1785714285714286  1.1250000000000000  0.0000000000000000  0.0000000000000000  0.0000000000000000  0.0000000000000000  0.0000000000000000
  0.5000000000000000  0.6122450000000000  1.0000000000000000  1.0000000000000000  0.0000000000000000  0.1785714285714286  1.1250000000000000  0.0000000000000000  0.0000000000000000  0.0000000000000000  0.0000000000000000  0.0000000000000000
  0.5000000000000000  0.5918369999999999  1.0000000000000000  1.0000000000000000  0.0000000000000000  0.1785714285714286  1.1250000000000000  0.0000000000000000  0.0000000000000000  0.0000000000000000  0.0000000000000000  0.0000000000000000
  0.5000000000000000  0.5714290000000000  1.0000000000000000  1.0000000000000000  0.0000000000000000  0.1785714285714286  1.1250000000000000  0.0000000000000000  0.0000000000000000  0.0000000000000000  0.0000000000000000  0.0000000000000000
  0.5000000000000000  0.5510200000000000  1.0000000000000000  1.0000000000000000  0.0000000000000000  0.1785714285714286  1.1250000000000000  0.0000000000000000  0.0000000000000000  0.0000000000000000  0.0000000000000000  0.0000000000000000
  0.5000000000000000  0.5306120000000000  1.0000000000000000  1.0000000000000000  0.0000000000000000  0.1785714285714286  1.1250000000000000  0.0000000000000000  0.0000000000000000  0.0000000000000000  0.0000000000000000  0.0000000000000000
  0.5000000000000000  0.5102040000000000  1.0000000000000000  1.0000000000000000  0.0000000000000000  0.1785714285714286  1.1250000000000000  0.0000000000000000  0.0000000000000000  0.0000000000000000  0.0000000000000000  0.0000000000000000
  0.5000000000000000  0.4897960000000000  1.0000000000000000  1.0000000000000000  0.0000000000000000  0.1785714285714286  1.1250000000000000  0.0000000000000000  0.0000000000000000  0.0000000000000000  0.0000000000000000  0.0000000000000000
  0.5000000000000000  0.4693880000000000  1.0000000000000000  1.0000000000000000  0.0000000000000000  0.1785714285714286  1.1250000000000000  0.0000000000000000  0.0000000000000000  0.0000000000000000  0.0000000000000000  0.0000000000000000
  0.5000000000000000  0.4489800000000000  1.0000000000000000  1.0000000000000000  0.0000000000000000  0.1785714285714286  1.1250000000000000  0.0000000000000000  0.0000000000000000  0.0000000000000000  0.0000000000000000  0.0000000000000000
  0.5000000000000000  0.4285710000000000  1.0000000000000000  1.0000000000000000  0.0000000000000000  0.1785714285714286  1.1250000000000000  0.0000000000000000  0.0000000000000000  0.0000000000000000  0.0000000000000000  0.0000000000000000
  0.5000000000000000  0.4081630000000000  1.0000000000000000  1.0000000000000000  0.0000000000000000  0.1785714285714286  1.1250000000000000  0.0000000000000000  0.0000000000000000  0.0000000000000000  0.0000000000000000  0.0000000000000000
  0.5000000000000000  0.3877550000000000  1.0000000000000000  1.0000000000000000  0.0000000000000000  0.1785714285714286  1.1250000000000000  0.0000000000000000  0.0000000000000000  0.0000000000000000  0.0000000000000000  0.0000000000000000
  0.5000000000000000  0.3673470000000000  1.0000000000000000  1.0000000000000000  0.0000000000000000  0.1785714285714286  1.1250000000000000  0.0000000000000000  0.0000000000000000  0.0000000000000000  0.0000000000000000  0.0000000000000000
  0.5000000000000000  0.3469390000000000  1.0000000000000000  1.0000000000000000  0.0000000000000000  0.1785714285714286  1.1250000000000000  0.0000000000000000  0.0000000000000000  0.0000000000000000  0.0000000000000000  0.0000000000000000
  0.5000000000000000  0.3265310000000000  1.0000000000000000  1.0000000000000000  0.0000000000000000  0.1785714285714286  1.1250000000000000  0.0000000000000000  0.0000000000000000  0.0000000000000000  0.0000000000000000  0.0000000000000000
  0.5000000000000000  0.3061220000000000  1.0000000000000000  1.0000000000000000  0.0000000000000000  0.1785714285714286  1.1250000000000000  0.0000000000000000  0.0000000000000000  0.0000000000000000  0.0000000000000000  0.0000000000000000
  0.5000000000000000  0.2857140000000000  1.0000000000000000  1.0000000000000000  0.0000000000000000  0.1785714285714286  1.1250000000000000  0.0000000000000000  0.0000000000000000  0.0000000000000000  0.0000000000000000  0.0000000000000000
  0.5000000000000000  0.2653060000000000  1.0000000000000000  1.0000000000000000  0.0000000000000000  0.1785714285714286  1.1250000000000000  0.0000000000000000  0.0000000000000000  0.0000000000000000  0.0000000000000000  0.0000000000000000
  0.5000000000000000  0.2448980000000000  1.0000000000000000  1.0000000000000000  0.0000000000000000  0.1785714285714286  1.1250000000000000  0.0000000000000000  0.0000000000000000  0.0000000000000000  0.0000000000000000  0.0000000000000000
  0.5000000000000000  0.2244900000000000  1.0000000000000000  1.0000000000000000  0.0000000000000000  0.1785714285714286  1.1250000000000000  0.0000000000000000  0.0000000000000000  0.0000000000000000  0.0000000000000000  0.0000000000000000
  0.5000000000000000  0.2040820000000000  1.0000000000000000  1.0000000000000000  0.0000000000000000  0.1785714285714286  1.1250000000000000  0.0000000000000000  0.0000000000000000  0.0000000000000000  0.0000000000000000  0.0000000000000000
  0.5000000000000000  0.1836730000000000  1.0000000000000000  1.0000000000000000  0.0000000000000000  0.1785714285714286  1.1250000000000000  0.0000000000000000  0.0000000000000000  0.0000000000000000  0.0000000000000000  0.0000000000000000
  0.5000000000000000  0.1632650000000000  1.0000000000000000  1.0000000000000000  0.0000000000000000  0.1785714285714286  1.1250000000000000  0.0000000000000000  0.0000000000000000  0.0000000000000000  0.0000000000000000  0.0000000000000000
  0.5000000000000000  0.1428570000000000  1.0000000000000000  1.0000000000000000  0.0000000000000000  0.1785714285714286  1.1250000000000000  0.0000000000000000  0.0000000000000000  0.0000000000000000  0.0000000000000000  0.0000000000000000
  0.5000000000000000  0.1224490000000000  1.0000000000000000  1.0000000000000000  0.0000000000000000  0.1785714285714286  1.1250000000000000  0.0000000000000000  0.0000000000000000  0.0000000000000000  0.0000000000000000  0.0000000000000000
  0.5000000000000000  0.1020410000000000  1.0000000000000000  1.0000000000000000  0.0000000000000000  0.1785714285714286  1.1250000000000000  0.0000000000000000  0.0000000000000000  0.0000000000000000  0.0000000000000000  0.0000000000000000
  0.5000000000000000  0.0816330000000000  1.0000000000000000  1.0000000000000000  0.0000000000000000  0.1785714285714286  1.1250000000000000  0.0000000000000000  0.0000000000000000  0.0000000000000000  0.0000000000000000  0.0000000000000000
  0.5000000000000000  0.0612240000000000  1.0000000000000000  1.0000000000000000  0.0000000000000000  0.1785714285714286  1.1250000000000000  0.0000000000000000  0.0000000000000000  0.0000000000000000  0.0000000000000000  0.0000000000000000
  0.5000000000000000  0.0408160000000000  1.0000000000000000  1.0000000000000000  0.0000000000000000  0.1785714285714286  1.1250000000000000  0.0000000000000000  0.0000000000000000  0.0000000000000000  0.0000000000000000  0.0000000000000000
  0.5000000000000000  0.0204080000000000  1.0000000000000000  1.0000000000000000  0.0000000000000000  0.1785714285714286  1.1250000000000000  0.0000000000000000  0.0000000000000000  0.0000000000000000  0.0000000000000000  0.0000000000000000
  0.4827590000000000  0.0000000000000000  1.0000000000000000  1.0000000000000000  0.0000000000000000  0.1785714285714286  1.1250000000000000  0.0000000000000000  0.0000000000000000  0.0000000000000000  0.0000000000000000  0.0000000000000000
  0.4655170000000000  0.0000000000000000  1.0000000000000000  1.0000000000000000  0.0000000000000000  0.1785714285714286  1.1250000000000000  0.0000000000000000  0.0000000000000000  0.0000000000000000  0.0000000000000000  0.0000000000000000
  0.4482760000000000  0.0000000000000000  1.0000000000000000  1.0000000000000000  0.0000000000000000  0.1785714285714286  1.1250000000000000  0.0000000000000000  0.0000000000000000  0.0000000000000000  0.0000000000000000  0.0000000000000000
  0.4310340000000000  0.0000000000000000  1.0000000000000000  1.0000000000000000  0.0000000000000000  0.1785714285714286  1.1250000000000000  0.0000000000000000  0.0000000000000000  0.0000000000000000  0.0000000000000000  0.0000000000000000
  0.4137930000000000  0.0000000000000000  1.0000000000000000  1.0000000000000000  0.0000000000000000  0.1785714285714286  1.1250000000000000  0.0000000000000000  0.0000000000000000  0.0000000000000000  0.0000000000000000  0.0000000000000000
  0.3965520000000000  0.0000000000000000  1.0000000000000000  1.0000000000000000  0.0000000000000000  0.1785714285714286  1.1250000000000000  0.0000000000000000  0.0000000000000000  0.0000000000000000  0.0000000000000000  0.0000000000000000
  0.3793100000000000  0.0000000000000000  1.0000000000000000  1.0000000000000000  0.0000000000000000  0.1785714285714286  1.1250000000000000  0.0000000000000000  0.0000000000000000  0.0000000000000000  0.0000000000000000  0.0000000000000000
  0.3620690000000000  0.0000000000000000  1.0000000000000000  1.0000000000000000  0.0000000000000000  0.1785714285714286  1.1250000000000000  0.0000000000000000  0.0000000000000000  0.0000000000000000  0.0000000000000000  0.0000000000000000
  0.3448280000000000  0.0000000000000000  1.0000000000000000  1.0000000000000000  0.0000000000000000  0.1785714285714286  1.1250000000000000  0.0000000000000000  0.0000000000000000  0.0000000000000000  0.0000000000000000  0.0000000000000000
  0.3275860000000000  0.0000000000000000  1.0000000000000000  1.0000000000000000  0.0000000000000000  0.1785714285714286  1.1250000000000000  0.0000000000000000  0.0000000000000000  0.0000000000000000  0.0000000000000000  0.0000000000000000
  0.3103450000000000  0.0000000000000000  1.0000000000000000  1.0000000000000000  0.0000000000000000  0.1785714285714286  1.1250000000000000  0.0000000000000000  0.0000000000000000  0.0000000000000000  0.0000000000000000  0.0000000000000000
  0.2931030000000000  0.0000000000000000  1.0000000000000000  1.0000000000000000  0.0000000000000000  0.1785714285714286  1.1250000000000000  0.0000000000000000  0.0000000000000000  0.0000000000000000  0.0000000000000000  0.0000000000000000
  0.2758620000000000  0.0000000000000000  1.0000000000000000  1.0000000000000000  0.0000000000000000  0.1785714285714286  1.1250000000000000  0.0000000000000000  0.0000000000000000  0.0000000000000000  0.0000000000000000  0.0000000000000000
  0.2586210000000000  0.0000000000000000  1.0000000000000000  1.0000000000000000  0.0000000000000000  0.1785714285714286  1.1250000000000000  0.0000000000000000  0.0000000000000000  0.0000000000000000  0.0000000000000000  0.0000000000000000
  0.2413790000000000  0.0000000000000000  1.0000000000000000  1.0000000000000000  0.0000000000000000  0.1785714285714286  1.1250000000000000  0.0000000000000000  0.0000000000000000  0.0000000000000000  0.0000000000000000  0.0000000000000000
  0.2241380000000000  0.0000000000000000  1.0000000000000000  1.0000000000000000  0.0000000000000000  0.1785714285714286  1.1250000000000000  0.0000000000000000  0.0000000000000000  0.0000000000000000  0.0000000000000000  0.0000000000000000
  0.2068970000000000  0.0000000000000000  1.0000000000000000  1.0000000000000000  0.0000000000000000  0.1785714285714286  1.1250000000000000  0.0000000000000000  0.0000000000000000  0.0000000000000000  0.0000000000000000  0.0000000000000000
  0.1896550000000000  0.0000000000000000  1.0000000000000000  1.0000000000000000  0.0000000000000000  0.1785714285714286  1.1250000000000000  0.0000000000000000  0.0000000000000000  0.0000000000000000  0.0000000000000000  0.0000000000000000
  0.1724140000000000  0.0000000000000000  1.0000000000000000  1.0000000000000000  0.0000000000000000  0.1785714285714286  1.1250000000000000  0.0000000000000000  0.0000000000000000  0.0000000000000000  0.0000000000000000  0.0000000000000000
  0.1551720000000000  0.0000000000000000  1.0000000000000000  1.0000000000000000  0.0000000000000000  0.1785714285714286  1.1250000000000000  0.0000000000000000  0.0000000000000000  0.0000000000000000  0.0000000000000000  0.0000000000000000
  0.1379310000000000  0.0000000000000000  1.0000000000000000  1.0000000000000000  0.0000000000000000  0.1785714285714286  1.1250000000000000  0.0000000000000000  0.0000000000000000  0.0000000000000000  0.0000000000000000  0.0000000000000000
  0.1206900000000000  0.0000000000000000  1.0000000000000000  1.0000000000000000  0.0000000000000000  0.1785714285714286  1.1250000000000000  0.0000000000000000  0.0000000000000000  0.0000000000000000  0.0000000000000000  0.0000000000000000
  0.1034480000000000  0.0000000000000000  1.0000000000000000  1.0000000000000000  0.0000000000000000  0.1785714285714286  1.1250000000000000  0.0000000000000000  0.0000000000000000  0.0000000000000000  0.0000000000000000  0.0000000000000000
  0.0862070000000000  0.0000000000000000  1.0000000000000000  1.0000000000000000  0.0000000000000000  0.1785714285714286  1.1250000000000000  0.0000000000000000  0.0000000000000000  0.0000000000000000  0.0000000000000000  0.0000000000000000
  0.0689660000000000  0.0000000000000000  1.0000000000000000  1.0000000000000000  0.0000000000000000  0.1785714285714286  1.1250000000000000  0.0000000000000000  0.0000000000000000  0.0000000000000000  0.0000000000000000  0.0000000000000000
  0.0517240000000000  0.0000000000000000  1.0000000000000000  1.0000000000000000  0.0000000000000000  0.1785714285714286  1.1250000000000000  0.0000000000000000  0.0000000000000000  0.0000000000000000  0.0000000000000000  0.0000000000000000
  0.0344830000000000  0.0000000000000000  1.0000000000000000  1.0000000000000000  0.0000000000000000  0.1785714285714286  1.1250000000000000  0.0000000000000000  0.0000000000000000  0.0000000000000000  0.0000000000000000  0.0000000000000000
  0.0172410000000000  0.0000000000000000  1.0000000000000000  1.0000000000000000  0.0000000000000000  0.1785714285714286  1.1250000000000000  0.0000000000000000  0.0000000000000000  0.0000000000000000  0.0000000000000000  0.0000000000000000
  1.4795920000000000  1.0000000000000000  1.0000000000000000  1.0000000000000000  0.0000000000000000  0.1785714285714286  1.1250000000000000  0.0000000000000000  0.0000000000000000  0.0000000000000000  0.0000000000000000  0.0000000000000000
  1.4591840000000000  1.0000000000000000  1.0000000000000000  1.0000000000000000  0.0000000000000000  0.1785714285714286  1.1250000000000000  0.0000000000000000  0.0000000000000000  0.0000000000000000  0.0000000000000000  0.0000000000000000
  1.4387760000000001  1.0000000000000000  1.0000000000000000  1.0000000000000000  0.0000000000000000  0.1785714285714286  1.1250000000000000  0.0000000000000000  0.0000000000000000  0.0000000000000000  0.0000000000000000  0.0000000000000000
  1.4183669999999999  1.0000000000000000  1.0000000000000000  1.0000000000000000  0.0000000000000000  0.1785714285714286  1.1250000000000000  0.0000000000000000  0.0000000000000000  0.0000000000000000  0.0000000000000000  0.0000000000000000
  1.3979590000000000  1.0000000000000000  1.0000000000000000  1.0000000000000000  0.0000000000000000  0.1785714285714286  1.1250000000000000  0.0000000000000000  0.0000000000000000  0.0000000000000000  0.0000000000000000  0.0000000000000000
  1.3775510000000000  1.0000000000000000  1.0000000000000000  1.0000000000000000  0.0000000000000000  0.1785714285714286  1.1250000000000000  0.0000000000000000  0.0000000000000000  0.0000000000000000  0.0000000000000000  0.0000000000000000
  1.3571430000000000  1.0000000000000000  1.0000000000000000  1.0000000000000000  0.0000000000000000  0.1785714285714286  1.1250000000000000  0.0000000000000000  0.0000000000000000  0.0000000000000000  0.0000000000000000  0.0000000000000000
  1.3367350000000000  1.0000000000000000  1.0000000000000000  1.0000000000000000  0.0000000000000000  0.1785714285714286  1.1250000000000000  0.0000000000000000  0.0000000000000000  0.0000000000000000  0.0000000000000000  0.0000000000000000
  1.3163270000000000  1.0000000000000000  1.0000000000000000  1.0000000000000000  0.0000000000000000  0.1785714285714286  1.1250000000000000  0.0000000000000000  0.0000000000000000  0.0000000000000000  0.0000000000000000  0.0000000000000000
  1.2959179999999999  1.0000000000000000  1.0000000000000000  1.0000000000000000  0.0000000000000000  0.1785714285714286  1.1250000000000000  0.0000000000000000  0.0000000000000000  0.0000000000000000  0.0000000000000000  0.0000000000000000
  1.2755099999999999  1.0000000000000000  1.0000000000000000  1.0000000000000000  0.0000000000000000  0.1785714285714286  1.1250000000000000  0.0000000000000000  0.0000000000000000  0.0000000000000000  0.0000000000000000  0.0000000000000000
  1.2551019999999999  1.0000000000000000  1.0000000000000000  1.0000000000000000  0.0000000000000000  0.1785714285714286  1.1250000000000000  0.0000000000000000  0.0000000000000000  0.0000000000000000  0.0000000000000000  0.0000000000000000
  1.2346940000000000  1.0000000000000000  1.0000000000000000  1.0000000000000000  0.0000000000000000  0.1785714285714286  1.1250000000000000  0.0000000000000000  0.0000000000000000  0.0000000000000000  0.0000000000000000  0.0000000000000000
  1.2142860000000000  1.0000000000000000  1.0000000000000000  1.0000000000000000  0.0000000000000000  0.1785714285714286  1.1250000000000000  0.0000000000000000  0.0000000000000000  0.0000000000000000  0.0000000000000000  0.0000000000000000