TITLE      =  Unstructured grid data 
VARIABLES  =  x  y  rho  u  v p H  Ma  s T time  sensor
ZONE    N  =  5328    E  =  10410    F = FEPOINT    ET = TRIANGLE 

0.00000000000000000000 0.00000000000000000000 1.00000000000000000000 1.00000000000000000000 -0.00000000000000000000 0.17857142857142860315 1.12500000000000044409 2.00000000000000000000 0.17857142857142860315 2.18750000000000088818 23.21808397796580791805 0.00000000000000000000
0.00000000000000000000 1.00000000000000000000 1.00000000000000000000 1.00000000000000000000 0.00000000000000000000 0.17857142857142860315 1.12500000000000044409 2.00000000000000000000 0.17857142857142860315 2.18750000000000088818 23.21808397796580791805 0.00000000000000000000
1.50000000000000000000 1.00000000000000000000 1.00000000165057567614 0.99999999958855356752 0.00000000023637306651 0.17857142898407346587 1.12500000000120103927 1.99999999851687171315 0.17857142857142954684 2.18750000144426648419 23.21808397796580791805 0.00000000000000000000
0.50000000000000000000 0.00000000000000000000 1.17329064435384244902 0.95234410431872840164 0.03866269400856489624 0.22485618871162044163 1.12498724269560979039 1.84008488257663649357 0.17977818616359628190 2.34766067979201320526 23.21808397796580791805 0.00000000000000000000
0.50000000000000000000 1.00000000000000000000 0.99999999999999522604 1.00000000000000488498 0.00000000000000083435 0.17857142857142754844 1.12500000000000444089 2.00000000000001110223 0.17857142857142874193 2.18749999999999822364 23.21808397796580791805 0.00000000000000000000
0.01724099999999999938 1.00000000000000000000 1.00000000000000000000 1.00000000000000000000 -0.00000000000000002062 0.17857142857142860315 1.12500000000000044409 2.00000000000000000000 0.17857142857142860315 2.18750000000000088818 23.21808397796580791805 0.00000000000000000000
0.03448299999999999976 1.00000000000000000000 1.00000000000000000000 1.00000000000000000000 0.00000000000000013505 0.17857142857142860315 1.12500000000000044409 2.00000000000000000000 0.17857142857142860315 2.18750000000000088818 23.21808397796580791805 0.00000000000000000000
0.05172399999999999914 1.00000000000000000000 1.00000000000000000000 1.00000000000000000000 0.00000000000000016138 0.17857142857142860315 1.12500000000000044409 2.00000000000000000000 0.17857142857142860315 2.18750000000000088818 23.21808397796580791805 0.00000000000000000000
0.06896599999999999953 1.00000000000000000000 1.00000000000000000000 1.00000000000000000000 0.00000000000000016665 0.17857142857142860315 1.12500000000000044409 2.00000000000000000000 0.17857142857142860315 2.18750000000000088818 23.21808397796580791805 0.00000000000000000000
0.08620700000000000585 1.00000000000000000000 0.99999999999999922284 1.00000000000000022204 -0.00000000000000008546 0.17857142857142854764 1.12500000000000088818 2.00000000000000000000 0.17857142857142874193 2.18750000000000222045 23.21808397796580791805 0.00000000000000000000
0.10344799999999999829 1.00000000000000000000 1.00000000000000000000 1.00000000000000000000 -0.00000000000000005317 0.17857142857142860315 1.12500000000000044409 2.00000000000000000000 0.17857142857142860315 2.18750000000000088818 23.21808397796580791805 0.00000000000000000000
0.12069000000000000561 1.00000000000000000000 0.99999999999999977796 1.00000000000000000000 0.00000000000000002638 0.17857142857142854764 1.12500000000000022204 2.00000000000000000000 0.17857142857142860315 2.18750000000000088818 23.21808397796580791805 0.00000000000000000000
0.13793099999999999805 1.00000000000000000000 0.99999999999999933387 1.00000000000000022204 0.00000000000000040398 0.17857142857142851988 1.12500000000000044409 2.00000000000000000000 0.17857142857142868642 2.18750000000000133227 23.21808397796580791805 0.00000000000000000000
0.15517200000000000437 1.00000000000000000000 0.99999999999999955591 1.00000000000000022204 0.00000000000000054353 0.17857142857142849213 1.12500000000000022204 2.00000000000000088818 0.17857142857142860315 2.18750000000000088818 23.21808397796580791805 0.00000000000000000000
0.17241400000000001169 1.00000000000000000000 0.99999999999999911182 1.00000000000000066613 0.00000000000000041865 0.17857142857142827008 1.12500000000000022204 2.00000000000000222045 0.17857142857142849213 2.18749999999999866773 23.21808397796580791805 0.00000000000000000000
0.18965499999999999026 1.00000000000000000000 1.00000000000000000000 1.00000000000000000000 -0.00000000000000039882 0.17857142857142868642 1.12500000000000044409 1.99999999999999955591 0.17857142857142868642 2.18750000000000222045 23.21808397796580791805 0.00000000000000000000
0.20689699999999999758 1.00000000000000000000 1.00000000000000000000 1.00000000000000000000 0.00000000000000001967 0.17857142857142882519 1.12500000000000088818 1.99999999999999866773 0.17857142857142882519 2.18750000000000399680 23.21808397796580791805 0.00000000000000000000
0.22413800000000000390 1.00000000000000000000 1.00000000000000066613 0.99999999999999977796 -0.00000000000000050826 0.17857142857142885295 1.12500000000000044409 1.99999999999999866773 0.17857142857142868642 2.18750000000000266454 23.21808397796580791805 0.00000000000000000000
0.24137900000000001022 1.00000000000000000000 1.00000000000000088818 0.99999999999999933387 -0.00000000000000070387 0.17857142857142901948 1.12500000000000044409 1.99999999999999733546 0.17857142857142876968 2.18750000000000399680 23.21808397796580791805 0.00000000000000000000
0.25862099999999998978 1.00000000000000000000 0.99999999999999755751 1.00000000000000177636 0.00000000000000093005 0.17857142857142793702 1.12500000000000133227 2.00000000000000488498 0.17857142857142854764 2.18749999999999822364 23.21808397796580791805 0.00000000000000000000
0.27586199999999999610 1.00000000000000000000 0.99999999999999988898 1.00000000000000044409 0.00000000000000021848 0.17857142857142888070 1.12500000000000177636 1.99999999999999911182 0.17857142857142890846 2.18750000000000488498 23.21808397796580791805 0.00000000000000000000
0.29310300000000000242 1.00000000000000000000 0.99999999999999811262 1.00000000000000177636 0.00000000000000065121 0.17857142857142821457 1.12500000000000177636 2.00000000000000399680 0.17857142857142868642 2.18750000000000088818 23.21808397796580791805 0.00000000000000000000
0.31034499999999998199 1.00000000000000000000 0.99999999999999789058 1.00000000000000199840 0.00000000000000003135 0.17857142857142802028 1.12500000000000133227 2.00000000000000532907 0.17857142857142854764 2.18749999999999822364 23.21808397796580791805 0.00000000000000000000
0.32758599999999998831 1.00000000000000000000 0.99999999999999822364 1.00000000000000222045 -0.00000000000000007925 0.17857142857142802028 1.12500000000000155431 2.00000000000000577316 0.17857142857142846437 2.18749999999999777955 23.21808397796580791805 0.00000000000000000000
0.34482800000000002338 1.00000000000000000000 0.99999999999999822364 1.00000000000000199840 -0.00000000000000046090 0.17857142857142815906 1.12500000000000177636 2.00000000000000488498 0.17857142857142860315 2.18749999999999955591 23.21808397796580791805 0.00000000000000000000
0.36206899999999997419 1.00000000000000000000 0.99999999999999655831 1.00000000000000399680 0.00000000000000099667 0.17857142857142754844 1.12500000000000266454 2.00000000000001065814 0.17857142857142840886 2.18749999999999555911 23.21808397796580791805 0.00000000000000000000
0.37930999999999998051 1.00000000000000000000 0.99999999999999678035 1.00000000000000510703 0.00000000000000056883 0.17857142857142727088 1.12500000000000266454 2.00000000000001465494 0.17857142857142807579 2.18749999999999156231 23.21808397796580791805 0.00000000000000000000
0.39655200000000001559 1.00000000000000000000 0.99999999999999689138 1.00000000000000510703 -0.00000000000000007828 0.17857142857142729864 1.12500000000000266454 2.00000000000001465494 0.17857142857142807579 2.18749999999999156231 23.21808397796580791805 0.00000000000000000000
0.41379300000000002191 1.00000000000000000000 0.99999999999999478195 1.00000000000000688338 -0.00000000000000053223 0.17857142857142624393 1.12500000000000222045 2.00000000000002176037 0.17857142857142754844 2.18749999999998356870 23.21808397796580791805 0.00000000000000000000
0.43103399999999997272 1.00000000000000000000 0.99999999999999600320 1.00000000000000732747 0.00000000000000029564 0.17857142857142629944 1.12500000000000199840 2.00000000000002353673 0.17857142857142729864 2.18749999999998179234 23.21808397796580791805 0.00000000000000000000
0.44827600000000000779 1.00000000000000000000 1.00000000000000199840 1.00000000000000444089 0.00000000000000001288 0.17857142857142829784 1.12500000000000244249 2.00000000000001243450 0.17857142857142777048 2.18749999999999289457 23.21808397796580791805 0.00000000000000000000
0.46551700000000001411 1.00000000000000000000 1.00000000000000199840 1.00000000000000355271 -0.00000000000000010162 0.17857142857142863090 1.12500000000000266454 2.00000000000000888178 0.17857142857142810355 2.18749999999999733546 23.21808397796580791805 0.00000000000000000000
0.48275899999999999368 1.00000000000000000000 1.00000000000000088818 1.00000000000000266454 -0.00000000000000010891 0.17857142857142907499 1.12500000000000399680 2.00000000000000355271 0.17857142857142882519 2.18750000000000488498 23.21808397796580791805 0.00000000000000000000
0.50000000000000000000 0.97959200000000001829 1.00000000000000111022 1.00000000000000022204 -0.00000000000000013612 0.17857142857142938031 1.12500000000000244249 1.99999999999999733546 0.17857142857142910275 2.18750000000000799361 23.21808397796580791805 0.00000000000000000000
0.50000000000000000000 0.95918400000000003658 1.00000000000000044409 1.00000000000000133227 -0.00000000000000111070 0.17857142857142935255 1.12500000000000399680 1.99999999999999911182 0.17857142857142924153 2.18750000000000932587 23.21808397796580791805 0.00000000000000000000
0.50000000000000000000 0.93877600000000005487 1.00000000000000088818 1.00000000000000111022 -0.00000000000000093552 0.17857142857142929704 1.12500000000000310862 1.99999999999999911182 0.17857142857142904724 2.18750000000000754952 23.21808397796580791805 0.00000000000000000000
0.50000000000000000000 0.91836700000000004440 1.00000000000000310862 1.00000000000000155431 -0.00000000000000029848 0.17857142857142893622 1.12500000000000088818 2.00000000000000444089 0.17857142857142813130 2.18749999999999822364 23.21808397796580791805 0.00000000000000000000
0.50000000000000000000 0.89795899999999995167 0.99999999999999877875 1.00000000000000155431 0.00000000000000157890 0.17857142857142824233 1.12500000000000133227 2.00000000000000399680 0.17857142857142854764 2.18749999999999955591 23.21808397796580791805 0.00000000000000000000
0.50000000000000000000 0.87755099999999996996 0.99999999999999533706 1.00000000000000244249 0.00000000000000340175 0.17857142857142710435 1.12500000000000044409 2.00000000000000888178 0.17857142857142827008 2.18749999999999289457 23.21808397796580791805 0.00000000000000000000
0.50000000000000000000 0.85714299999999998825 0.99999999999999711342 1.00000000000000044409 0.00000000000000238849 0.17857142857142796477 1.12500000000000022204 2.00000000000000177636 0.17857142857142868642 2.18749999999999955591 23.21808397796580791805 0.00000000000000000000
0.50000000000000000000 0.83673500000000000654 0.99999999999999666933 1.00000000000000044409 0.00000000000000111222 0.17857142857142796477 1.12500000000000044409 2.00000000000000133227 0.17857142857142879744 2.18750000000000088818 23.21808397796580791805 0.00000000000000000000
0.50000000000000000000 0.81632700000000002483 0.99999999999999811262 1.00000000000000111022 -0.00000000000000078774 0.17857142857142804804 1.12500000000000044409 2.00000000000000355271 0.17857142857142851988 2.18749999999999822364 23.21808397796580791805 0.00000000000000000000
0.50000000000000000000 0.79591800000000001436 1.00000000000000000000 1.00000000000000000000 0.00000000000000005436 0.17857142857142860315 1.12500000000000044409 2.00000000000000000000 0.17857142857142860315 2.18750000000000088818 23.21808397796580791805 0.00000000000000000000
0.50000000000000000000 0.77551000000000003265 1.00000000000000000000 1.00000000000000000000 0.00000000000000103788 0.17857142857142865866 1.12500000000000044409 1.99999999999999955591 0.17857142857142865866 2.18750000000000133227 23.21808397796580791805 0.00000000000000000000
0.50000000000000000000 0.75510200000000005094 0.99999999999999777955 1.00000000000000088818 0.00000000000000015828 0.17857142857142829784 1.12500000000000133227 2.00000000000000133227 0.17857142857142885295 2.18750000000000222045 23.21808397796580791805 0.00000000000000000000
0.50000000000000000000 0.73469399999999995821 0.99999999999999922284 1.00000000000000088818 -0.00000000000000015719 0.17857142857142832559 1.12500000000000066613 2.00000000000000266454 0.17857142857142851988 2.18749999999999955591 23.21808397796580791805 0.00000000000000000000
0.50000000000000000000 0.71428599999999997650 0.99999999999999933387 1.00000000000000022204 -0.00000000000000034155 0.17857142857142851988 1.12500000000000044409 2.00000000000000000000 0.17857142857142868642 2.18750000000000133227 23.21808397796580791805 0.00000000000000000000
0.50000000000000000000 0.69387799999999999478 0.99999999999999944489 1.00000000000000044409 0.00000000000000009553 0.17857142857142854764 1.12500000000000088818 2.00000000000000044409 0.17857142857142868642 2.18750000000000133227 23.21808397796580791805 0.00000000000000000000
0.50000000000000000000 0.67346899999999998432 0.99999999999999944489 0.99999999999999988898 -0.00000000000000028846 0.17857142857142868642 1.12500000000000088818 1.99999999999999844569 0.17857142857142882519 2.18750000000000355271 23.21808397796580791805 0.00000000000000000000
0.50000000000000000000 0.65306100000000000261 0.99999999999999988898 1.00000000000000022204 -0.00000000000000001628 0.17857142857142879744 1.12500000000000111022 1.99999999999999911182 0.17857142857142882519 2.18750000000000399680 23.21808397796580791805 0.00000000000000000000
0.50000000000000000000 0.63265300000000002090 0.99999999999999988898 0.99999999999999900080 0.00000000000000008434 0.17857142857142893622 1.12500000000000044409 1.99999999999999578115 0.17857142857142896397 2.18750000000000532907 23.21808397796580791805 0.00000000000000000000
0.50000000000000000000 0.61224500000000003919 0.99999999999999977796 1.00000000000000022204 -0.00000000000000035325 0.17857142857142882519 1.12500000000000133227 1.99999999999999911182 0.17857142857142888070 2.18750000000000399680 23.21808397796580791805 0.00000000000000000000
0.50000000000000000000 0.59183699999999994645 1.00000000000000000000 1.00000000000000000000 -0.00000000000000006660 0.17857142857142865866 1.12500000000000044409 1.99999999999999955591 0.17857142857142865866 2.18750000000000133227 23.21808397796580791805 0.00000000000000000000
0.50000000000000000000 0.57142899999999996474 0.99999999999999877875 1.00000000000000088818 -0.00000000000000058435 0.17857142857142829784 1.12500000000000088818 2.00000000000000222045 0.17857142857142860315 2.18750000000000000000 23.21808397796580791805 0.00000000000000000000
0.50000000000000000000 0.55101999999999995428 0.99999999999999933387 1.00000000000000044409 0.00000000000000065017 0.17857142857142840886 1.12500000000000044409 2.00000000000000133227 0.17857142857142857539 2.18750000000000000000 23.21808397796580791805 0.00000000000000000000
0.50000000000000000000 0.53061199999999997257 0.99999999999999933387 1.00000000000000044409 -0.00000000000000017604 0.17857142857142843662 1.12500000000000044409 2.00000000000000133227 0.17857142857142860315 2.18750000000000088818 23.21808397796580791805 0.00000000000000000000
0.50000000000000000000 0.51020399999999999086 0.99999999999999988898 0.99999999999999977796 -0.00000000000000043697 0.17857142857142863090 1.12500000000000000000 1.99999999999999911182 0.17857142857142865866 2.18750000000000133227 23.21808397796580791805 0.00000000000000000000
0.50000000000000000000 0.48979600000000000914 1.00000000000000000000 1.00000000000000000000 0.00000000000000027679 0.17857142857142879744 1.12500000000000088818 1.99999999999999911182 0.17857142857142879744 2.18750000000000355271 23.21808397796580791805 0.00000000000000000000
0.50000000000000000000 0.46938800000000002743 1.00000000000000000000 1.00000000000000000000 0.00000000000000009091 0.17857142857142860315 1.12500000000000044409 2.00000000000000000000 0.17857142857142860315 2.18750000000000088818 23.21808397796580791805 0.00000000000000000000
0.50000000000000000000 0.44897999999999999021 0.99999999999999922284 1.00000000000000044409 0.00000000000000014261 0.17857142857142840886 1.12500000000000044409 2.00000000000000133227 0.17857142857142860315 2.18750000000000088818 23.21808397796580791805 0.00000000000000000000
0.50000000000000000000 0.42857099999999997975 1.00000000000000000000 0.99999999999999988898 0.00000000000000004432 0.17857142857142874193 1.12500000000000044409 1.99999999999999888978 0.17857142857142874193 2.18750000000000266454 23.21808397796580791805 0.00000000000000000000
0.50000000000000000000 0.40816299999999999804 0.99999999999999922284 1.00000000000000044409 -0.00000000000000020423 0.17857142857142849213 1.12500000000000088818 2.00000000000000088818 0.17857142857142868642 2.18750000000000133227 23.21808397796580791805 0.00000000000000000000
0.50000000000000000000 0.38775500000000001632 0.99999999999999966693 1.00000000000000022204 0.00000000000000034422 0.17857142857142868642 1.12500000000000088818 1.99999999999999955591 0.17857142857142876968 2.18750000000000266454 23.21808397796580791805 0.00000000000000000000
0.50000000000000000000 0.36734699999999997910 0.99999999999999811262 1.00000000000000044409 -0.00000000000000081197 0.17857142857142827008 1.12500000000000066613 2.00000000000000088818 0.17857142857142874193 2.18750000000000088818 23.21808397796580791805 0.00000000000000000000
0.50000000000000000000 0.34693899999999999739 1.00000000000000000000 1.00000000000000000000 0.00000000000000028959 0.17857142857142904724 1.12500000000000177636 1.99999999999999733546 0.17857142857142904724 2.18750000000000666134 23.21808397796580791805 0.00000000000000000000
0.50000000000000000000 0.32653100000000001568 0.99999999999999800160 1.00000000000000088818 0.00000000000000002284 0.17857142857142838110 1.12500000000000155431 2.00000000000000088818 0.17857142857142888070 2.18750000000000266454 23.21808397796580791805 0.00000000000000000000
0.50000000000000000000 0.30612200000000000522 1.00000000000000000000 1.00000000000000000000 -0.00000000000000057832 0.17857142857142874193 1.12500000000000066613 1.99999999999999911182 0.17857142857142874193 2.18750000000000266454 23.21808397796580791805 0.00000000000000000000
0.50000000000000000000 0.28571400000000002350 0.99999999999999833467 1.00000000000000155431 -0.00000000000000007115 0.17857142857142796477 1.12500000000000044409 2.00000000000000488498 0.17857142857142838110 2.18749999999999689138 23.21808397796580791805 0.00000000000000000000
0.50000000000000000000 0.26530599999999998628 0.99999999999999922284 1.00000000000000022204 0.00000000000000060844 0.17857142857142849213 1.12500000000000044409 2.00000000000000044409 0.17857142857142868642 2.18750000000000133227 23.21808397796580791805 0.00000000000000000000
0.50000000000000000000 0.24489800000000000457 1.00000000000000000000 1.00000000000000000000 0.00000000000000013741 0.17857142857142860315 1.12500000000000044409 2.00000000000000000000 0.17857142857142860315 2.18750000000000088818 23.21808397796580791805 0.00000000000000000000
0.50000000000000000000 0.22448999999999999511 0.99999999999999855671 1.00000000000000111022 -0.00000000000000033090 0.17857142857142810355 1.12500000000000044409 2.00000000000000355271 0.17857142857142846437 2.18749999999999777955 23.21808397796580791805 0.00000000000000000000
0.50000000000000000000 0.20408200000000001340 1.00000000000000000000 1.00000000000000000000 0.00000000000000066463 0.17857142857142868642 1.12500000000000044409 1.99999999999999955591 0.17857142857142868642 2.18750000000000222045 23.21808397796580791805 0.00000000000000000000
0.50000000000000000000 0.18367300000000000293 1.00000000000006328271 0.99999999999998001599 0.00000000000002566386 0.17857142857144533976 1.12499999999999933387 1.99999999999992938982 0.17857142857142951908 2.18750000000006750156 23.21808397796580791805 0.00000000000000000000
0.50000000000000000000 0.16326499999999999346 1.00000000000020539126 0.99999999999998090416 0.00000000000008687134 0.17857142857148086690 1.12500000000003574918 1.99999999999987432275 0.17857142857142951908 2.18750000000019184654 23.21808397796580791805 0.00000000000000000000
0.50000000000000000000 0.14285700000000001175 0.99999999999823052654 0.99999999999902700054 -0.00000000000088035612 0.17857142857098726174 1.12499999999858846245 1.99999999999875588408 0.17857142857142963011 2.18749999999846522769 23.21808397796580791805 0.00000000000000000000
0.50000000000000000000 0.12244900000000000229 1.00000000058332072506 0.99999999985010101788 0.00000000025696027299 0.17857142871725911748 1.12499999999593258693 1.99999999946687179175 0.17857142857142893622 2.18750000051041082472 23.21808397796580791805 0.00000000000000000000
0.50000000000000000000 0.10204100000000000670 1.00000000023668667026 0.99999999988324250744 -0.00000000036855688903 0.17857142863060082583 1.12499999994241628443 1.99999999967180741578 0.17857142857142915826 2.18750000020710855253 23.21808397796580791805 0.00000000000000000000
0.50000000000000000000 0.08163299999999999723 0.99999937411801997911 1.00000018370425847181 -0.00000028250172170343 0.17857127210086426450 1.12500002723347991562 2.00000061776202686659 0.17857142857133970204 2.18749945235207654548 23.21808397796580791805 0.00000000000000000000
0.50000000000000000000 0.06122400000000000064 1.00000451357159581001 0.99999794374226635973 0.00000161577337841137 0.17857255700041230195 1.12499907225978801328 1.99999408187073823839 0.17857142860649452554 2.18750394979935780526 23.21808397796580791805 0.00000000000000000000
0.50000000000000000000 0.04081599999999999812 1.00016565222050801687 0.99996090431885975569 0.00007042730111105605 0.17861283861430199416 1.12500230321805561040 1.99985558642905059124 0.17857142418820412533 2.18764488479235108542 23.21808397796580791805 0.00000000000000000000
0.50000000000000000000 0.02040799999999999906 0.99576340944243946218 1.00099707079122479669 -0.00176293287874422716 0.17750605357371035398 1.12491357944028669280 2.00373811679548774478 0.17856426053723661873 2.18370060162734613840 23.21808397796580791805 0.00000000000000000000
0.48275899999999999368 0.00000000000000000000 0.98417751027056543656 1.00442992406942277483 -0.00338687473391648423 0.17446514601306575831 1.12489046725983699027 2.01623185993866727017 0.17840452561011826971 2.17155748465793285717 23.21808397796580791805 0.00000000000000000000
0.46551700000000001411 0.00000000000000000000 1.00128225586135788383 0.99968569161103160159 0.00031664411687684581 0.17889095491174314412 1.12500231754756985225 1.99886539263612594830 0.17857031076562349114 2.18860784243467865195 23.21808397796580791805 0.00000000000000000000
0.44827600000000000779 0.00000000000000000000 0.99988794823286197833 1.00002723378967628420 -0.00002436504584343799 0.17854340983698524514 1.12499919809973003559 2.00009932907613441344 0.17857142214996843399 2.18740187274835218290 23.21808397796580791805 0.00000000000000000000
0.43103399999999997272 0.00000000000000000000 1.00001008390849177587 0.99999755382729071940 0.00000200479831469707 0.17857394949361582448 1.12500007459172124413 1.99999107446558066492 0.17857142851140947459 2.18750882265800150606 23.21808397796580791805 0.00000000000000000000
0.41379300000000002191 0.00000000000000000000 0.99999924420541486114 1.00000018697728609851 -0.00000017136680564020 0.17857123962242993365 1.12499999802729577780 2.00000067627476241228 0.17857142857104765787 2.18749933867492263317 23.21808397796580791805 0.00000000000000000000
0.39655200000000001559 0.00000000000000000000 1.00000006084138592932 0.99999998495865294323 0.00000001421350903748 0.17857144378177294830 1.12500000016899148747 1.99999994558076599205 0.17857142857142627168 2.18750005323618390563 23.21808397796580791805 0.00000000000000000000
0.37930999999999998051 0.00000000000000000000 0.99999999550979934426 1.00000000109121978120 -0.00000000089983181259 0.17857142744887818941 1.12499999996866906216 2.00000000397852106815 0.17857142857142835335 2.18749999607107215027 23.21808397796580791805 0.00000000000000000000
0.36206899999999997419 0.00000000000000000000 1.00000000032408697948 0.99999999992239985147 0.00000000003892182418 0.17857142865245073660 1.12500000000342326167 1.99999999971516251307 0.17857142857142899173 2.18750000028358204673 23.21808397796580791805 0.00000000000000000000
0.34482800000000002338 0.00000000000000000000 0.99999999998649025112 1.00000000000323274740 -0.00000000000277730557 0.17857142856805111042 1.12499999999985522692 2.00000000001186961640 0.17857142857142854764 2.18749999998817923341 23.21808397796580791805 0.00000000000000000000
0.32758599999999998831 0.00000000000000000000 1.00000000000122923893 0.99999999999971178610 0.00000000000036313931 0.17857142857173591288 1.12500000000001931788 1.99999999999893196545 0.17857142857142863090 2.18750000000107647224 23.21808397796580791805 0.00000000000000000000
0.31034499999999998199 0.00000000000000000000 0.99999999999984112709 1.00000000000003996803 -0.00000000000004557540 0.17857142857138871839 1.12500000000000000000 2.00000000000014432899 0.17857142857142843662 2.18749999999986011190 23.21808397796580791805 0.00000000000000000000
0.29310300000000000242 0.00000000000000000000 1.00000000000001909584 0.99999999999999533706 0.00000000000000474611 0.17857142857143348813 1.12500000000000066613 1.99999999999998223643 0.17857142857142874193 2.18750000000001909584 23.21808397796580791805 0.00000000000000000000
0.27586199999999999610 0.00000000000000000000 0.99999999999999700240 1.00000000000000222045 -0.00000000000000120887 0.17857142857142774273 1.12500000000000133227 2.00000000000000621725 0.17857142857142849213 2.18749999999999733546 23.21808397796580791805 0.00000000000000000000
0.25862099999999998978 0.00000000000000000000 0.99999999999999988898 1.00000000000000088818 -0.00000000000000019194 0.17857142857142865866 1.12500000000000133227 2.00000000000000133227 0.17857142857142868642 2.18750000000000222045 23.21808397796580791805 0.00000000000000000000
0.24137900000000001022 0.00000000000000000000 1.00000000000000000000 1.00000000000000022204 -0.00000000000000021574 0.17857142857142868642 1.12500000000000088818 2.00000000000000000000 0.17857142857142868642 2.18750000000000222045 23.21808397796580791805 0.00000000000000000000
0.22413800000000000390 0.00000000000000000000 1.00000000000000000000 1.00000000000000022204 -0.00000000000000011132 0.17857142857142860315 1.12500000000000044409 2.00000000000000044409 0.17857142857142860315 2.18750000000000088818 23.21808397796580791805 0.00000000000000000000
0.20689699999999999758 0.00000000000000000000 0.99999999999999988898 1.00000000000000022204 -0.00000000000000007926 0.17857142857142843662 1.12500000000000000000 2.00000000000000133227 0.17857142857142846437 2.18749999999999955591 23.21808397796580791805 0.00000000000000000000
0.18965499999999999026 0.00000000000000000000 0.99999999999999966693 1.00000000000000000000 -0.00000000000000006491 0.17857142857142851988 1.12500000000000000000 2.00000000000000000000 0.17857142857142860315 2.18750000000000088818 23.21808397796580791805 0.00000000000000000000
0.17241400000000001169 0.00000000000000000000 0.99999999999999888978 1.00000000000000022204 -0.00000000000000029573 0.17857142857142849213 1.12500000000000066613 2.00000000000000000000 0.17857142857142876968 2.18750000000000222045 23.21808397796580791805 0.00000000000000000000
0.15517200000000000437 0.00000000000000000000 0.99999999999999877875 0.99999999999999977796 -0.00000000000000001428 0.17857142857142846437 1.12500000000000044409 1.99999999999999911182 0.17857142857142876968 2.18750000000000222045 23.21808397796580791805 0.00000000000000000000
0.13793099999999999805 0.00000000000000000000 0.99999999999999888978 0.99999999999999977796 0.00000000000000028554 0.17857142857142849213 1.12500000000000022204 1.99999999999999911182 0.17857142857142876968 2.18750000000000222045 23.21808397796580791805 0.00000000000000000000
0.12069000000000000561 0.00000000000000000000 0.99999999999999933387 0.99999999999999955591 0.00000000000000044487 0.17857142857142865866 1.12500000000000044409 1.99999999999999822364 0.17857142857142882519 2.18750000000000355271 23.21808397796580791805 0.00000000000000000000
0.10344799999999999829 0.00000000000000000000 0.99999999999999966693 0.99999999999999955591 0.00000000000000030318 0.17857142857142874193 1.12500000000000044409 1.99999999999999777955 0.17857142857142882519 2.18750000000000355271 23.21808397796580791805 0.00000000000000000000
0.08620700000000000585 0.00000000000000000000 0.99999999999999988898 0.99999999999999944489 0.00000000000000018949 0.17857142857142885295 1.12500000000000066613 1.99999999999999711342 0.17857142857142888070 2.18750000000000399680 23.21808397796580791805 0.00000000000000000000
0.06896599999999999953 0.00000000000000000000 1.00000000000000000000 0.99999999999999944489 0.00000000000000023889 0.17857142857142868642 1.12500000000000000000 1.99999999999999844569 0.17857142857142868642 2.18750000000000222045 23.21808397796580791805 0.00000000000000000000
0.05172399999999999914 0.00000000000000000000 1.00000000000000000000 1.00000000000000000000 0.00000000000000007971 0.17857142857142868642 1.12500000000000044409 1.99999999999999955591 0.17857142857142868642 2.18750000000000222045 23.21808397796580791805 0.00000000000000000000