TITLE      =  Unstructured grid data 
VARIABLES  =  x  y  rho  u  v p H  Ma  s T time  sensor
ZONE    N  =  0    E  =  0    F = FEPOINT    ET = TRIANGLE 

  1.0000000000000000  0.0000000000000000  1.0000000000000000  0.9997620000000000  0.0218150000000000  1.1160714355901429  4.4062500000000000  0.0000000000000000  0.0000000000000000  0.0000000000000000  0.0000000000000000  0.0000000000000000
  0.0000000000000000  0.0000000000000000  1.0000000000000000  0.9997620000000000  0.0218150000000000  1.1160714355901429  4.4062500000000000  0.0000000000000000  0.0000000000000000  0.0000000000000000  0.0000000000000000  0.0000000000000000
 11.0000000000000000  0.0000000000000000  1.0000000000000000  0.9997620000000000  0.0218150000000000  1.1160714355901429  4.4062500000000000  0.0000000000000000  0.0000000000000000  0.0000000000000000  0.0000000000000000  0.0000000000000000
 11.0000000000000000 10.0000000000000000  1.0000000000000000  0.9997620000000000  0.0218150000000000  1.1160714355901429  4.4062500000000000  0.0000000000000000  0.0000000000000000  0.0000000000000000  0.0000000000000000  0.0000000000000000
-10.0000000000000000 10.0000000000000000  1.0000000000000000  0.9997620000000000  0.0218150000000000  1.1160714355901429  4.4062500000000000  0.0000000000000000  0.0000000000000000  0.0000000000000000  0.0000000000000000  0.0000000000000000
-10.0000000000000000  0.0000000000000000  1.0000000000000000  0.9997620000000000  0.0218150000000000  1.1160714355901429  4.4062500000000000  0.0000000000000000  0.0000000000000000  0.0000000000000000  0.0000000000000000  0.0000000000000000
-10.0000000000000000-10.0000000000000000  1.0000000000000000  0.9997620000000000  0.0218150000000000  1.1160714355901429  4.4062500000000000  0.0000000000000000  0.0000000000000000  0.0000000000000000  0.0000000000000000  0.0000000000000000
 11.0000000000000000-10.0000000000000000  1.0000000000000000  0.9997620000000000  0.0218150000000000  1.1160714355901429  4.4062500000000000  0.0000000000000000  0.0000000000000000  0.0000000000000000  0.0000000000000000  0.0000000000000000
  0.9950599999999999  0.0007710000000000  1.0000000000000000  0.9997620000000000  0.0218150000000000  1.1160714355901429  4.4062500000000000  0.0000000000000000  0.0000000000000000  0.0000000000000000  0.0000000000000000  0.0000000000000000
  0.9898250000000000  0.0015820000000000  1.0000000000000000  0.9997620000000000  0.0218150000000000  1.1160714355901429  4.4062500000000000  0.0000000000000000  0.0000000000000000  0.0000000000000000  0.0000000000000000  0.0000000000000000
  0.9842800000000000  0.0024370000000000  1.0000000000000000  0.9997620000000000  0.0218150000000000  1.1160714355901429  4.4062500000000000  0.0000000000000000  0.0000000000000000  0.0000000000000000  0.0000000000000000  0.0000000000000000
  0.9784119999999999  0.0033340000000000  1.0000000000000000  0.9997620000000000  0.0218150000000000  1.1160714355901429  4.4062500000000000  0.0000000000000000  0.0000000000000000  0.0000000000000000  0.0000000000000000  0.0000000000000000
  0.9722050000000000  0.0042750000000000  1.0000000000000000  0.9997620000000000  0.0218150000000000  1.1160714355901429  4.4062500000000000  0.0000000000000000  0.0000000000000000  0.0000000000000000  0.0000000000000000  0.0000000000000000
  0.9656439999999999  0.0052630000000000  1.0000000000000000  0.9997620000000000  0.0218150000000000  1.1160714355901429  4.4062500000000000  0.0000000000000000  0.0000000000000000  0.0000000000000000  0.0000000000000000  0.0000000000000000
  0.9587160000000000  0.0062970000000000  1.0000000000000000  0.9997620000000000  0.0218150000000000  1.1160714355901429  4.4062500000000000  0.0000000000000000  0.0000000000000000  0.0000000000000000  0.0000000000000000  0.0000000000000000
  0.9514040000000000  0.0073780000000000  1.0000000000000000  0.9997620000000000  0.0218150000000000  1.1160714355901429  4.4062500000000000  0.0000000000000000  0.0000000000000000  0.0000000000000000  0.0000000000000000  0.0000000000000000
  0.9436940000000000  0.0085110000000000  1.0000000000000000  0.9997620000000000  0.0218150000000000  1.1160714355901429  4.4062500000000000  0.0000000000000000  0.0000000000000000  0.0000000000000000  0.0000000000000000  0.0000000000000000
  0.9355710000000000  0.0096840000000000  1.0000000000000000  0.9997620000000000  0.0218150000000000  1.1160714355901429  4.4062500000000000  0.0000000000000000  0.0000000000000000  0.0000000000000000  0.0000000000000000  0.0000000000000000
  0.9270230000000000  0.0109190000000000  1.0000000000000000  0.9997620000000000  0.0218150000000000  1.1160714355901429  4.4062500000000000  0.0000000000000000  0.0000000000000000  0.0000000000000000  0.0000000000000000  0.0000000000000000
  0.9180320000000000  0.0121880000000000  1.0000000000000000  0.9997620000000000  0.0218150000000000  1.1160714355901429  4.4062500000000000  0.0000000000000000  0.0000000000000000  0.0000000000000000  0.0000000000000000  0.0000000000000000
  0.9085910000000000  0.0135180000000000  1.0000000000000000  0.9997620000000000  0.0218150000000000  1.1160714355901429  4.4062500000000000  0.0000000000000000  0.0000000000000000  0.0000000000000000  0.0000000000000000  0.0000000000000000
  0.8986830000000000  0.0148900000000000  1.0000000000000000  0.9997620000000000  0.0218150000000000  1.1160714355901429  4.4062500000000000  0.0000000000000000  0.0000000000000000  0.0000000000000000  0.0000000000000000  0.0000000000000000
  0.8882989999999999  0.0163120000000000  1.0000000000000000  0.9997620000000000  0.0218150000000000  1.1160714355901429  4.4062500000000000  0.0000000000000000  0.0000000000000000  0.0000000000000000  0.0000000000000000  0.0000000000000000
  0.8774300000000000  0.0177880000000000  1.0000000000000000  0.9997620000000000  0.0218150000000000  1.1160714355901429  4.4062500000000000  0.0000000000000000  0.0000000000000000  0.0000000000000000  0.0000000000000000  0.0000000000000000
  0.8660639999999999  0.0192960000000000  1.0000000000000000  0.9997620000000000  0.0218150000000000  1.1160714355901429  4.4062500000000000  0.0000000000000000  0.0000000000000000  0.0000000000000000  0.0000000000000000  0.0000000000000000
  0.8541990000000000  0.0208700000000000  1.0000000000000000  0.9997620000000000  0.0218150000000000  1.1160714355901429  4.4062500000000000  0.0000000000000000  0.0000000000000000  0.0000000000000000  0.0000000000000000  0.0000000000000000
  0.8418230000000000  0.0224590000000000  1.0000000000000000  0.9997620000000000  0.0218150000000000  1.1160714355901429  4.4062500000000000  0.0000000000000000  0.0000000000000000  0.0000000000000000  0.0000000000000000  0.0000000000000000
  0.8289400000000000  0.0241120000000000  1.0000000000000000  0.9997620000000000  0.0218150000000000  1.1160714355901429  4.4062500000000000  0.0000000000000000  0.0000000000000000  0.0000000000000000  0.0000000000000000  0.0000000000000000
  0.8155430000000000  0.0257850000000000  1.0000000000000000  0.9997620000000000  0.0218150000000000  1.1160714355901429  4.4062500000000000  0.0000000000000000  0.0000000000000000  0.0000000000000000  0.0000000000000000  0.0000000000000000
  0.8016370000000000  0.0275030000000000  1.0000000000000000  0.9997620000000000  0.0218150000000000  1.1160714355901429  4.4062500000000000  0.0000000000000000  0.0000000000000000  0.0000000000000000  0.0000000000000000  0.0000000000000000
  0.7872240000000000  0.0292490000000000  1.0000000000000000  0.9997620000000000  0.0218150000000000  1.1160714355901429  4.4062500000000000  0.0000000000000000  0.0000000000000000  0.0000000000000000  0.0000000000000000  0.0000000000000000
  0.7723090000000000  0.0310180000000000  1.0000000000000000  0.9997620000000000  0.0218150000000000  1.1160714355901429  4.4062500000000000  0.0000000000000000  0.0000000000000000  0.0000000000000000  0.0000000000000000  0.0000000000000000
  0.7569040000000000  0.0328210000000000  1.0000000000000000  0.9997620000000000  0.0218150000000000  1.1160714355901429  4.4062500000000000  0.0000000000000000  0.0000000000000000  0.0000000000000000  0.0000000000000000  0.0000000000000000
  0.7410160000000000  0.0346220000000000  1.0000000000000000  0.9997620000000000  0.0218150000000000  1.1160714355901429  4.4062500000000000  0.0000000000000000  0.0000000000000000  0.0000000000000000  0.0000000000000000  0.0000000000000000
  0.7246670000000000  0.0364620000000000  1.0000000000000000  0.9997620000000000  0.0218150000000000  1.1160714355901429  4.4062500000000000  0.0000000000000000  0.0000000000000000  0.0000000000000000  0.0000000000000000  0.0000000000000000
  0.7078660000000000  0.0382750000000000  1.0000000000000000  0.9997620000000000  0.0218150000000000  1.1160714355901429  4.4062500000000000  0.0000000000000000  0.0000000000000000  0.0000000000000000  0.0000000000000000  0.0000000000000000
  0.6906440000000000  0.0401280000000000  1.0000000000000000  0.9997620000000000  0.0218150000000000  1.1160714355901429  4.4062500000000000  0.0000000000000000  0.0000000000000000  0.0000000000000000  0.0000000000000000  0.0000000000000000
  0.6730140000000000  0.0419270000000000  1.0000000000000000  0.9997620000000000  0.0218150000000000  1.1160714355901429  4.4062500000000000  0.0000000000000000  0.0000000000000000  0.0000000000000000  0.0000000000000000  0.0000000000000000
  0.6550150000000000  0.0437640000000000  1.0000000000000000  0.9997620000000000  0.0218150000000000  1.1160714355901429  4.4062500000000000  0.0000000000000000  0.0000000000000000  0.0000000000000000  0.0000000000000000  0.0000000000000000
  0.6366640000000000  0.0455220000000000  1.0000000000000000  0.9997620000000000  0.0218150000000000  1.1160714355901429  4.4062500000000000  0.0000000000000000  0.0000000000000000  0.0000000000000000  0.0000000000000000  0.0000000000000000
  0.6180060000000001  0.0473090000000000  1.0000000000000000  0.9997620000000000  0.0218150000000000  1.1160714355901429  4.4062500000000000  0.0000000000000000  0.0000000000000000  0.0000000000000000  0.0000000000000000  0.0000000000000000
  0.5990660000000000  0.0490000000000000  1.0000000000000000  0.9997620000000000  0.0218150000000000  1.1160714355901429  4.4062500000000000  0.0000000000000000  0.0000000000000000  0.0000000000000000  0.0000000000000000  0.0000000000000000
  0.5798900000000000  0.0507060000000000  1.0000000000000000  0.9997620000000000  0.0218150000000000  1.1160714355901429  4.4062500000000000  0.0000000000000000  0.0000000000000000  0.0000000000000000  0.0000000000000000  0.0000000000000000
  0.5605080000000000  0.0522940000000000  1.0000000000000000  0.9997620000000000  0.0218150000000000  1.1160714355901429  4.4062500000000000  0.0000000000000000  0.0000000000000000  0.0000000000000000  0.0000000000000000  0.0000000000000000
  0.5409720000000000  0.0538840000000000  1.0000000000000000  0.9997620000000000  0.0218150000000000  1.1160714355901429  4.4062500000000000  0.0000000000000000  0.0000000000000000  0.0000000000000000  0.0000000000000000  0.0000000000000000
  0.5213140000000001  0.0553340000000000  1.0000000000000000  0.9997620000000000  0.0218150000000000  1.1160714355901429  4.4062500000000000  0.0000000000000000  0.0000000000000000  0.0000000000000000  0.0000000000000000  0.0000000000000000
  0.5015890000000000  0.0567760000000000  1.0000000000000000  0.9997620000000000  0.0218150000000000  1.1160714355901429  4.4062500000000000  0.0000000000000000  0.0000000000000000  0.0000000000000000  0.0000000000000000  0.0000000000000000
  0.4818300000000000  0.0580500000000000  1.0000000000000000  0.9997620000000000  0.0218150000000000  1.1160714355901429  4.4062500000000000  0.0000000000000000  0.0000000000000000  0.0000000000000000  0.0000000000000000  0.0000000000000000
  0.4620920000000000  0.0593110000000000  1.0000000000000000  0.9997620000000000  0.0218150000000000  1.1160714355901429  4.4062500000000000  0.0000000000000000  0.0000000000000000  0.0000000000000000  0.0000000000000000  0.0000000000000000
  0.4424090000000000  0.0603770000000000  1.0000000000000000  0.9997620000000000  0.0218150000000000  1.1160714355901429  4.4062500000000000  0.0000000000000000  0.0000000000000000  0.0000000000000000  0.0000000000000000  0.0000000000000000
  0.4228370000000000  0.0614250000000000  1.0000000000000000  0.9997620000000000  0.0218150000000000  1.1160714355901429  4.4062500000000000  0.0000000000000000  0.0000000000000000  0.0000000000000000  0.0000000000000000  0.0000000000000000
  0.4034080000000000  0.0622500000000000  1.0000000000000000  0.9997620000000000  0.0218150000000000  1.1160714355901429  4.4062500000000000  0.0000000000000000  0.0000000000000000  0.0000000000000000  0.0000000000000000  0.0000000000000000
  0.3841730000000000  0.0630580000000000  1.0000000000000000  0.9997620000000000  0.0218150000000000  1.1160714355901429  4.4062500000000000  0.0000000000000000  0.0000000000000000  0.0000000000000000  0.0000000000000000  0.0000000000000000
  0.3651650000000000  0.0636180000000000  1.0000000000000000  0.9997620000000000  0.0218150000000000  1.1160714355901429  4.4062500000000000  0.0000000000000000  0.0000000000000000  0.0000000000000000  0.0000000000000000  0.0000000000000000
  0.3464300000000000  0.0641620000000000  1.0000000000000000  0.9997620000000000  0.0218150000000000  1.1160714355901429  4.4062500000000000  0.0000000000000000  0.0000000000000000  0.0000000000000000  0.0000000000000000  0.0000000000000000
  0.3279970000000000  0.0644410000000000  1.0000000000000000  0.9997620000000000  0.0218150000000000  1.1160714355901429  4.4062500000000000  0.0000000000000000  0.0000000000000000  0.0000000000000000  0.0000000000000000  0.0000000000000000
  0.3099060000000000  0.0647030000000000  1.0000000000000000  0.9997620000000000  0.0218150000000000  1.1160714355901429  4.4062500000000000  0.0000000000000000  0.0000000000000000  0.0000000000000000  0.0000000000000000  0.0000000000000000
  0.2921850000000000  0.0646900000000000  1.0000000000000000  0.9997620000000000  0.0218150000000000  1.1160714355901429  4.4062500000000000  0.0000000000000000  0.0000000000000000  0.0000000000000000  0.0000000000000000  0.0000000000000000
  0.2748640000000000  0.0646590000000000  1.0000000000000000  0.9997620000000000  0.0218150000000000  1.1160714355901429  4.4062500000000000  0.0000000000000000  0.0000000000000000  0.0000000000000000  0.0000000000000000  0.0000000000000000
  0.2579690000000000  0.0643520000000000  1.0000000000000000  0.9997620000000000  0.0218150000000000  1.1160714355901429  4.4062500000000000  0.0000000000000000  0.0000000000000000  0.0000000000000000  0.0000000000000000  0.0000000000000000
  0.2415190000000000  0.0640220000000000  1.0000000000000000  0.9997620000000000  0.0218150000000000  1.1160714355901429  4.4062500000000000  0.0000000000000000  0.0000000000000000  0.0000000000000000  0.0000000000000000  0.0000000000000000
  0.2255420000000000  0.0634280000000000  1.0000000000000000  0.9997620000000000  0.0218150000000000  1.1160714355901429  4.4062500000000000  0.0000000000000000  0.0000000000000000  0.0000000000000000  0.0000000000000000  0.0000000000000000
  0.2100440000000000  0.0627990000000000  1.0000000000000000  0.9997620000000000  0.0218150000000000  1.1160714355901429  4.4062500000000000  0.0000000000000000  0.0000000000000000  0.0000000000000000  0.0000000000000000  0.0000000000000000
  0.1950500000000000  0.0619320000000000  1.0000000000000000  0.9997620000000000  0.0218150000000000  1.1160714355901429  4.4062500000000000  0.0000000000000000  0.0000000000000000  0.0000000000000000  0.0000000000000000  0.0000000000000000
  0.1805610000000000  0.0610070000000000  1.0000000000000000  0.9997620000000000  0.0218150000000000  1.1160714355901429  4.4062500000000000  0.0000000000000000  0.0000000000000000  0.0000000000000000  0.0000000000000000  0.0000000000000000
  0.1665950000000000  0.0598850000000000  1.0000000000000000  0.9997620000000000  0.0218150000000000  1.1160714355901429  4.4062500000000000  0.0000000000000000  0.0000000000000000  0.0000000000000000  0.0000000000000000  0.0000000000000000
  0.1531490000000000  0.0586710000000000  1.0000000000000000  0.9997620000000000  0.0218150000000000  1.1160714355901429  4.4062500000000000  0.0000000000000000  0.0000000000000000  0.0000000000000000  0.0000000000000000  0.0000000000000000
  0.1402330000000000  0.0573160000000000  1.0000000000000000  0.9997620000000000  0.0218150000000000  1.1160714355901429  4.4062500000000000  0.0000000000000000  0.0000000000000000  0.0000000000000000  0.0000000000000000  0.0000000000000000
  0.1278450000000000  0.0558210000000000  1.0000000000000000  0.9997620000000000  0.0218150000000000  1.1160714355901429  4.4062500000000000  0.0000000000000000  0.0000000000000000  0.0000000000000000  0.0000000000000000  0.0000000000000000
  0.1159810000000000  0.0542560000000000  1.0000000000000000  0.9997620000000000  0.0218150000000000  1.1160714355901429  4.4062500000000000  0.0000000000000000  0.0000000000000000  0.0000000000000000  0.0000000000000000  0.0000000000000000
  0.1046520000000000  0.0524940000000000  1.0000000000000000  0.9997620000000000  0.0218150000000000  1.1160714355901429  4.4062500000000000  0.0000000000000000  0.0000000000000000  0.0000000000000000  0.0000000000000000  0.0000000000000000
  0.0938260000000000  0.0507370000000000  1.0000000000000000  0.9997620000000000  0.0218150000000000  1.1160714355901429  4.4062500000000000  0.0000000000000000  0.0000000000000000  0.0000000000000000  0.0000000000000000  0.0000000000000000
  0.0835620000000000  0.0486150000000000  1.0000000000000000  0.9997620000000000  0.0218150000000000  1.1160714355901429  4.4062500000000000  0.0000000000000000  0.0000000000000000  0.0000000000000000  0.0000000000000000  0.0000000000000000
  0.0737670000000000  0.0465900000000000  1.0000000000000000  0.9997620000000000  0.0218150000000000  1.1160714355901429  4.4062500000000000  0.0000000000000000  0.0000000000000000  0.0000000000000000  0.0000000000000000  0.0000000000000000
  0.0645670000000000  0.0440930000000000  1.0000000000000000  0.9997620000000000  0.0218150000000000  1.1160714355901429  4.4062500000000000  0.0000000000000000  0.0000000000000000  0.0000000000000000  0.0000000000000000  0.0000000000000000
  0.0558260000000000  0.0416370000000000  1.0000000000000000  0.9997620000000000  0.0218150000000000  1.1160714355901429  4.4062500000000000  0.0000000000000000  0.0000000000000000  0.0000000000000000  0.0000000000000000  0.0000000000000000
  0.0476490000000000  0.0388770000000000  1.0000000000000000  0.9997620000000000  0.0218150000000000  1.1160714355901429  4.4062500000000000  0.0000000000000000  0.0000000000000000  0.0000000000000000  0.0000000000000000  0.0000000000000000
  0.0399530000000000  0.0360250000000000  1.0000000000000000  0.9997620000000000  0.0218150000000000  1.1160714355901429  4.4062500000000000  0.0000000000000000  0.0000000000000000  0.0000000000000000  0.0000000000000000  0.0000000000000000
  0.0327900000000000  0.0329810000000000  1.0000000000000000  0.9997620000000000  0.0218150000000000  1.1160714355901429  4.4062500000000000  0.0000000000000000  0.0000000000000000  0.0000000000000000  0.0000000000000000  0.0000000000000000
  0.0261480000000000  0.0297380000000000  1.0000000000000000  0.9997620000000000  0.0218150000000000  1.1160714355901429  4.4062500000000000  0.0000000000000000  0.0000000000000000  0.0000000000000000  0.0000000000000000  0.0000000000000000
  0.0200460000000000  0.0263270000000000  1.0000000000000000  0.9997620000000000  0.0218150000000000  1.1160714355901429  4.4062500000000000  0.0000000000000000  0.0000000000000000  0.0000000000000000  0.0000000000000000  0.0000000000000000
  0.0145160000000000  0.0226620000000000  1.0000000000000000  0.9997620000000000  0.0218150000000000  1.1160714355901429  4.4062500000000000  0.0000000000000000  0.0000000000000000  0.0000000000000000  0.0000000000000000  0.0000000000000000
  0.0096800000000000  0.0187010000000000  1.0000000000000000  0.9997620000000000  0.0218150000000000  1.1160714355901429  4.4062500000000000  0.0000000000000000  0.0000000000000000  0.0000000000000000  0.0000000000000000  0.0000000000000000
  0.0054270000000000  0.0145600000000000  1.0000000000000000  0.9997620000000000  0.0218150000000000  1.1160714355901429  4.4062500000000000  0.0000000000000000  0.0000000000000000  0.0000000000000000  0.0000000000000000  0.0000000000000000
  0.0024790000000000  0.0098160000000000  1.0000000000000000  0.9997620000000000  0.0218150000000000  1.1160714355901429  4.4062500000000000  0.0000000000000000  0.0000000000000000  0.0000000000000000  0.0000000000000000  0.0000000000000000
  0.0006160000000000  0.0049620000000000  1.0000000000000000  0.9997620000000000  0.0218150000000000  1.1160714355901429  4.4062500000000000  0.0000000000000000  0.0000000000000000  0.0000000000000000  0.0000000000000000  0.0000000000000000
  0.0015710000000000 -0.0047470000000000  1.0000000000000000  0.9997620000000000  0.0218150000000000  1.1160714355901429  4.4062500000000000  0.0000000000000000  0.0000000000000000  0.0000000000000000  0.0000000000000000  0.0000000000000000
  0.0043110000000000 -0.0091720000000000  1.0000000000000000  0.9997620000000000  0.0218150000000000  1.1160714355901429  4.4062500000000000  0.0000000000000000  0.0000000000000000  0.0000000000000000  0.0000000000000000  0.0000000000000000
  0.0080680000000000 -0.0133020000000000  1.0000000000000000  0.9997620000000000  0.0218150000000000  1.1160714355901429  4.4062500000000000  0.0000000000000000  0.0000000000000000  0.0000000000000000  0.0000000000000000  0.0000000000000000
  0.0129340000000000 -0.0166920000000000  1.0000000000000000  0.9997620000000000  0.0218150000000000  1.1160714355901429  4.4062500000000000  0.0000000000000000  0.0000000000000000  0.0000000000000000  0.0000000000000000  0.0000000000000000
  0.0183360000000000 -0.0198310000000000  1.0000000000000000  0.9997620000000000  0.0218150000000000  1.1160714355901429  4.4062500000000000  0.0000000000000000  0.0000000000000000  0.0000000000000000  0.0000000000000000  0.0000000000000000
  0.0243180000000000 -0.0226730000000000  1.0000000000000000  0.9997620000000000  0.0218150000000000  1.1160714355901429  4.4062500000000000  0.0000000000000000  0.0000000000000000  0.0000000000000000  0.0000000000000000  0.0000000000000000
  0.0308210000000000 -0.0252150000000000  1.0000000000000000  0.9997620000000000  0.0218150000000000  1.1160714355901429  4.4062500000000000  0.0000000000000000  0.0000000000000000  0.0000000000000000  0.0000000000000000  0.0000000000000000
  0.0377800000000000 -0.0276550000000000  1.0000000000000000  0.9997620000000000  0.0218150000000000  1.1160714355901429  4.4062500000000000  0.0000000000000000  0.0000000000000000  0.0000000000000000  0.0000000000000000  0.0000000000000000
  0.0452250000000000 -0.0298660000000000  1.0000000000000000  0.9997620000000000  0.0218150000000000  1.1160714355901429  4.4062500000000000  0.0000000000000000  0.0000000000000000  0.0000000000000000  0.0000000000000000  0.0000000000000000
  0.0531170000000000 -0.0320270000000000  1.0000000000000000  0.9997620000000000  0.0218150000000000  1.1160714355901429  4.4062500000000000  0.0000000000000000  0.0000000000000000  0.0000000000000000  0.0000000000000000  0.0000000000000000
  0.0614800000000000 -0.0340540000000000  1.0000000000000000  0.9997620000000000  0.0218150000000000  1.1160714355901429  4.4062500000000000  0.0000000000000000  0.0000000000000000  0.0000000000000000  0.0000000000000000  0.0000000000000000
  0.0703060000000000 -0.0360340000000000  1.0000000000000000  0.9997620000000000  0.0218150000000000  1.1160714355901429  4.4062500000000000  0.0000000000000000  0.0000000000000000  0.0000000000000000  0.0000000000000000  0.0000000000000000
  0.0796030000000000 -0.0379650000000000  1.0000000000000000  0.9997620000000000  0.0218150000000000  1.1160714355901429  4.4062500000000000  0.0000000000000000  0.0000000000000000  0.0000000000000000  0.0000000000000000  0.0000000000000000
  0.0893820000000000 -0.0398450000000000  1.0000000000000000  0.9997620000000000  0.0218150000000000  1.1160714355901429  4.4062500000000000  0.0000000000000000  0.0000000000000000  0.0000000000000000  0.0000000000000000  0.0000000000000000
  0.0996490000000000 -0.0416820000000000  1.0000000000000000  0.9997620000000000  0.0218150000000000  1.1160714355901429  4.4062500000000000  0.0000000000000000  0.0000000000000000  0.0000000000000000  0.0000000000000000  0.0000000000000000
  0.1104290000000000 -0.0433810000000000  1.0000000000000000  0.9997620000000000  0.0218150000000000  1.1160714355901429  4.4062500000000000  0.0000000000000000  0.0000000000000000  0.0000000000000000  0.0000000000000000  0.0000000000000000
  0.1217030000000000 -0.0450890000000000  1.0000000000000000  0.9997620000000000  0.0218150000000000  1.1160714355901429  4.4062500000000000  0.0000000000000000  0.0000000000000000  0.0000000000000000  0.0000000000000000  0.0000000000000000
  0.1335170000000000 -0.0465270000000000  1.0000000000000000  0.9997620000000000  0.0218150000000000  1.1160714355901429  4.4062500000000000  0.0000000000000000  0.0000000000000000  0.0000000000000000  0.0000000000000000  0.0000000000000000
  0.1458290000000000 -0.0480250000000000  1.0000000000000000  0.9997620000000000  0.0218150000000000  1.1160714355901429  4.4062500000000000  0.0000000000000000  0.0000000000000000  0.0000000000000000  0.0000000000000000  0.0000000000000000
  0.1586800000000000 -0.0492230000000000  1.0000000000000000  0.9997620000000000  0.0218150000000000  1.1160714355901429  4.4062500000000000  0.0000000000000000  0.0000000000000000  0.0000000000000000  0.0000000000000000  0.0000000000000000
  0.1720360000000000 -0.0504500000000000  1.0000000000000000  0.9997620000000000  0.0218150000000000  1.1160714355901429  4.4062500000000000  0.0000000000000000  0.0000000000000000  0.0000000000000000  0.0000000000000000  0.0000000000000000
  0.1859150000000000 -0.0514500000000000  1.0000000000000000  0.9997620000000000  0.0218150000000000  1.1160714355901429  4.4062500000000000  0.0000000000000000  0.0000000000000000  0.0000000000000000  0.0000000000000000  0.0000000000000000
  0.2002990000000000 -0.0524020000000000  1.0000000000000000  0.9997620000000000  0.0218150000000000  1.1160714355901429  4.4062500000000000  0.0000000000000000  0.0000000000000000  0.0000000000000000  0.0000000000000000  0.0000000000000000
  0.2151860000000000 -0.0531810000000000  1.0000000000000000  0.9997620000000000  0.0218150000000000  1.1160714355901429  4.4062500000000000  0.0000000000000000  0.0000000000000000  0.0000000000000000  0.0000000000000000  0.0000000000000000
  0.2305640000000000 -0.0538530000000000  1.0000000000000000  0.9997620000000000  0.0218150000000000  1.1160714355901429  4.4062500000000000  0.0000000000000000  0.0000000000000000  0.0000000000000000  0.0000000000000000  0.0000000000000000
  0.2464170000000000 -0.0543930000000000  1.0000000000000000  0.9997620000000000  0.0218150000000000  1.1160714355901429  4.4062500000000000  0.0000000000000000  0.0000000000000000  0.0000000000000000  0.0000000000000000  0.0000000000000000
  0.2627320000000000 -0.0547830000000000  1.0000000000000000  0.9997620000000000  0.0218150000000000  1.1160714355901429  4.4062500000000000  0.0000000000000000  0.0000000000000000  0.0000000000000000  0.0000000000000000  0.0000000000000000
  0.2794860000000000 -0.0550690000000000  1.0000000000000000  0.9997620000000000  0.0218150000000000  1.1160714355901429  4.4062500000000000  0.0000000000000000  0.0000000000000000  0.0000000000000000  0.0000000000000000  0.0000000000000000
  0.2966600000000000 -0.0551800000000000  1.0000000000000000  0.9997620000000000  0.0218150000000000  1.1160714355901429  4.4062500000000000  0.0000000000000000  0.0000000000000000  0.0000000000000000  0.0000000000000000  0.0000000000000000
  0.3142270000000000 -0.0552060000000000  1.0000000000000000  0.9997620000000000  0.0218150000000000  1.1160714355901429  4.4062500000000000  0.0000000000000000  0.0000000000000000  0.0000000000000000  0.0000000000000000  0.0000000000000000
  0.3321590000000000 -0.0550460000000000  1.0000000000000000  0.9997620000000000  0.0218150000000000  1.1160714355901429  4.4062500000000000  0.0000000000000000  0.0000000000000000  0.0000000000000000  0.0000000000000000  0.0000000000000000
  0.3504260000000000 -0.0548140000000000  1.0000000000000000  0.9997620000000000  0.0218150000000000  1.1160714355901429  4.4062500000000000  0.0000000000000000  0.0000000000000000  0.0000000000000000  0.0000000000000000  0.0000000000000000
  0.3689930000000000 -0.0543950000000000  1.0000000000000000  0.9997620000000000  0.0218150000000000  1.1160714355901429  4.4062500000000000  0.0000000000000000  0.0000000000000000  0.0000000000000000  0.0000000000000000  0.0000000000000000
  0.3878260000000000 -0.0539130000000000  1.0000000000000000  0.9997620000000000  0.0218150000000000  1.1160714355901429  4.4062500000000000  0.0000000000000000  0.0000000000000000  0.0000000000000000  0.0000000000000000  0.0000000000000000
  0.4068860000000000 -0.0532540000000000  1.0000000000000000  0.9997620000000000  0.0218150000000000  1.1160714355901429  4.4062500000000000  0.0000000000000000  0.0000000000000000  0.0000000000000000  0.0000000000000000  0.0000000000000000
  0.4261350000000000 -0.0525400000000000  1.0000000000000000  0.9997620000000000  0.0218150000000000  1.1160714355901429  4.4062500000000000  0.0000000000000000  0.0000000000000000  0.0000000000000000  0.0000000000000000  0.0000000000000000
  0.4455290000000000 -0.0516640000000000  1.0000000000000000  0.9997620000000000  0.0218150000000000  1.1160714355901429  4.4062500000000000  0.0000000000000000  0.0000000000000000  0.0000000000000000  0.0000000000000000  0.0000000000000000